MODEL 1
REMARK VINA RESULT:      -8.1      0.000      0.000
REMARK  Name = 9835049
REMARK  4 active torsions:
REMARK  status: ('A' for Active; 'I' for Inactive)
REMARK    1  A    between atoms: S_1  and  O_2
REMARK    2  A    between atoms: S_1  and  O_5
REMARK    3  A    between atoms: O_2  and  N_9
REMARK    4  A    between atoms: C_14  and  C_17
REMARK                            x       y       z     vdW  Elec       q    Type
REMARK                         _______ _______ _______ _____ _____    ______ ____
ROOT
ATOM      1  O   UNL     1      -7.573  -5.536  10.850  0.00  0.00    +0.000 OA
ATOM      2  N   UNL     1      -8.481  -5.159   8.646  0.00  0.00    +0.000 N 
ATOM      3  N   UNL     1      -7.932  -3.388   9.925  0.00  0.00    +0.000 N 
ATOM      4  C   UNL     1      -8.718  -2.911   8.798  0.00  0.00    +0.000 C 
ATOM      5  C   UNL     1      -8.336  -3.981   7.791  0.00  0.00    +0.000 C 
ATOM      6  C   UNL     1     -10.244  -3.046   9.042  0.00  0.00    +0.000 C 
ATOM      7  C   UNL     1      -9.851  -5.628   8.817  0.00  0.00    +0.000 C 
ATOM      8  C   UNL     1     -10.715  -4.486   9.410  0.00  0.00    +0.000 C 
ATOM      9  C   UNL     1      -7.870  -4.791   9.928  0.00  0.00    +0.000 C 
ENDROOT
BRANCH   7  12
ATOM     10  O   UNL     1     -11.420  -5.693   7.017  0.00  0.00    +0.000 OA
ATOM     11  N   UNL     1      -9.612  -7.114   6.938  0.00  0.00    +0.000 N 
ATOM     12  C   UNL     1     -10.382  -6.127   7.509  0.00  0.00    +0.000 C 
ATOM     13  H   UNL     1      -9.874  -7.535   6.053  0.00  0.00    +0.000 HD
ATOM     14  H   UNL     1      -8.759  -7.452   7.373  0.00  0.00    +0.000 HD
ENDBRANCH   7  12
BRANCH   3  15
ATOM     15  O   UNL     1      -7.905  -2.639  11.093  0.00  0.00    +0.000 OA
BRANCH  15  16
ATOM     16  S   UNL     1      -6.426  -1.987  11.385  0.00  0.00    +0.000 S 
ATOM     17  O   UNL     1      -6.525  -1.151  12.567  0.00  0.00    +0.000 OA
ATOM     18  O   UNL     1      -5.918  -1.447  10.138  0.00  0.00    +0.000 OA
BRANCH  16  19
ATOM     19  O   UNL     1      -5.511  -3.280  11.772  0.00  0.00    +0.000 OA
ATOM     20  H   UNL     1      -4.571  -3.079  11.991  0.00  0.00    +0.000 HD
ENDBRANCH  16  19
ENDBRANCH  15  16
ENDBRANCH   3  15
TORSDOF 4
ENDMDL
MODEL 2
REMARK VINA RESULT:      -7.7      2.785      5.356
REMARK  Name = 9835049
REMARK  4 active torsions:
REMARK  status: ('A' for Active; 'I' for Inactive)
REMARK    1  A    between atoms: S_1  and  O_2
REMARK    2  A    between atoms: S_1  and  O_5
REMARK    3  A    between atoms: O_2  and  N_9
REMARK    4  A    between atoms: C_14  and  C_17
REMARK                            x       y       z     vdW  Elec       q    Type
REMARK                         _______ _______ _______ _____ _____    ______ ____
ROOT
ATOM      1  O   UNL     1      -6.802  -5.008  10.938  0.00  0.00    +0.000 OA
ATOM      2  N   UNL     1      -8.056  -2.993  11.371  0.00  0.00    +0.000 N 
ATOM      3  N   UNL     1      -8.312  -4.041   9.394  0.00  0.00    +0.000 N 
ATOM      4  C   UNL     1      -8.925  -2.725   9.296  0.00  0.00    +0.000 C 
ATOM      5  C   UNL     1      -9.306  -2.548  10.754  0.00  0.00    +0.000 C 
ATOM      6  C   UNL     1      -7.893  -1.616   8.961  0.00  0.00    +0.000 C 
ATOM      7  C   UNL     1      -6.994  -1.994  11.394  0.00  0.00    +0.000 C 
ATOM      8  C   UNL     1      -6.687  -1.537   9.946  0.00  0.00    +0.000 C 
ATOM      9  C   UNL     1      -7.656  -4.192  10.627  0.00  0.00    +0.000 C 
ENDROOT
BRANCH   7  12
ATOM     10  O   UNL     1      -7.162   0.315  11.985  0.00  0.00    +0.000 OA
ATOM     11  N   UNL     1      -8.004  -1.248  13.448  0.00  0.00    +0.000 N 
ATOM     12  C   UNL     1      -7.389  -0.855  12.282  0.00  0.00    +0.000 C 
ATOM     13  H   UNL     1      -8.312  -0.566  14.132  0.00  0.00    +0.000 HD
ATOM     14  H   UNL     1      -8.176  -2.225  13.665  0.00  0.00    +0.000 HD
ENDBRANCH   7  12
BRANCH   3  15
ATOM     15  O   UNL     1      -7.874  -4.668   8.236  0.00  0.00    +0.000 OA
BRANCH  15  16
ATOM     16  S   UNL     1      -8.546  -6.153   8.036  0.00  0.00    +0.000 S 
ATOM     17  O   UNL     1      -9.506  -6.364   9.105  0.00  0.00    +0.000 OA
ATOM     18  O   UNL     1      -7.476  -7.105   7.806  0.00  0.00    +0.000 OA
BRANCH  16  19
ATOM     19  O   UNL     1      -9.384  -6.007   6.645  0.00  0.00    +0.000 OA
ATOM     20  H   UNL     1     -10.135  -6.637   6.538  0.00  0.00    +0.000 HD
ENDBRANCH  16  19
ENDBRANCH  15  16
ENDBRANCH   3  15
TORSDOF 4
ENDMDL
MODEL 3
REMARK VINA RESULT:      -7.5      1.588      2.254
REMARK  Name = 9835049
REMARK  4 active torsions:
REMARK  status: ('A' for Active; 'I' for Inactive)
REMARK    1  A    between atoms: S_1  and  O_2
REMARK    2  A    between atoms: S_1  and  O_5
REMARK    3  A    between atoms: O_2  and  N_9
REMARK    4  A    between atoms: C_14  and  C_17
REMARK                            x       y       z     vdW  Elec       q    Type
REMARK                         _______ _______ _______ _____ _____    ______ ____
ROOT
ATOM      1  O   UNL     1      -7.596  -3.148   7.256  0.00  0.00    +0.000 OA
ATOM      2  N   UNL     1      -9.884  -3.878   7.493  0.00  0.00    +0.000 N 
ATOM      3  N   UNL     1      -8.546  -3.857   9.304  0.00  0.00    +0.000 N 
ATOM      4  C   UNL     1      -9.750  -4.603   9.634  0.00  0.00    +0.000 C 
ATOM      5  C   UNL     1     -10.713  -3.898   8.698  0.00  0.00    +0.000 C 
ATOM      6  C   UNL     1      -9.675  -6.082   9.173  0.00  0.00    +0.000 C 
ATOM      7  C   UNL     1      -9.866  -5.126   6.740  0.00  0.00    +0.000 C 
ATOM      8  C   UNL     1      -9.366  -6.271   7.657  0.00  0.00    +0.000 C 
ATOM      9  C   UNL     1      -8.542  -3.498   7.946  0.00  0.00    +0.000 C 
ENDROOT
BRANCH   7  12
ATOM     10  O   UNL     1     -11.797  -4.600   5.436  0.00  0.00    +0.000 OA
ATOM     11  N   UNL     1     -11.765  -6.597   6.577  0.00  0.00    +0.000 N 
ATOM     12  C   UNL     1     -11.226  -5.397   6.175  0.00  0.00    +0.000 C 
ATOM     13  H   UNL     1     -12.684  -6.888   6.265  0.00  0.00    +0.000 HD
ATOM     14  H   UNL     1     -11.266  -7.234   7.192  0.00  0.00    +0.000 HD
ENDBRANCH   7  12
BRANCH   3  15
ATOM     15  O   UNL     1      -7.379  -4.114  10.010  0.00  0.00    +0.000 OA
BRANCH  15  16
ATOM     16  S   UNL     1      -6.973  -2.883  11.017  0.00  0.00    +0.000 S 
ATOM     17  O   UNL     1      -7.980  -2.799  12.059  0.00  0.00    +0.000 OA
ATOM     18  O   UNL     1      -6.650  -1.724  10.206  0.00  0.00    +0.000 OA
BRANCH  16  19
ATOM     19  O   UNL     1      -5.590  -3.400  11.710  0.00  0.00    +0.000 OA
ATOM     20  H   UNL     1      -5.181  -4.195  11.292  0.00  0.00    +0.000 HD
ENDBRANCH  16  19
ENDBRANCH  15  16
ENDBRANCH   3  15
TORSDOF 4
ENDMDL
MODEL 4
REMARK VINA RESULT:      -7.4      2.616      5.490
REMARK  Name = 9835049
REMARK  4 active torsions:
REMARK  status: ('A' for Active; 'I' for Inactive)
REMARK    1  A    between atoms: S_1  and  O_2
REMARK    2  A    between atoms: S_1  and  O_5
REMARK    3  A    between atoms: O_2  and  N_9
REMARK    4  A    between atoms: C_14  and  C_17
REMARK                            x       y       z     vdW  Elec       q    Type
REMARK                         _______ _______ _______ _____ _____    ______ ____
ROOT
ATOM      1  O   UNL     1      -7.791  -3.466   7.065  0.00  0.00    +0.000 OA
ATOM      2  N   UNL     1      -7.731  -4.143   9.381  0.00  0.00    +0.000 N 
ATOM      3  N   UNL     1      -9.424  -4.850   8.074  0.00  0.00    +0.000 N 
ATOM      4  C   UNL     1      -9.767  -5.132   9.460  0.00  0.00    +0.000 C 
ATOM      5  C   UNL     1      -8.362  -5.305  10.007  0.00  0.00    +0.000 C 
ATOM      6  C   UNL     1     -10.384  -3.904  10.179  0.00  0.00    +0.000 C 
ATOM      7  C   UNL     1      -7.976  -2.874  10.056  0.00  0.00    +0.000 C 
ATOM      8  C   UNL     1      -9.503  -2.618  10.131  0.00  0.00    +0.000 C 
ATOM      9  C   UNL     1      -8.223  -4.125   7.999  0.00  0.00    +0.000 C 
ENDROOT
BRANCH   7  12
ATOM     10  O   UNL     1      -7.932  -2.541  12.421  0.00  0.00    +0.000 OA
ATOM     11  N   UNL     1      -6.019  -3.297  11.391  0.00  0.00    +0.000 N 
ATOM     12  C   UNL     1      -7.331  -2.886  11.407  0.00  0.00    +0.000 C 
ATOM     13  H   UNL     1      -5.474  -3.341  12.246  0.00  0.00    +0.000 HD
ATOM     14  H   UNL     1      -5.550  -3.574  10.534  0.00  0.00    +0.000 HD
ENDBRANCH   7  12
BRANCH   3  15
ATOM     15  O   UNL     1     -10.443  -4.701   7.145  0.00  0.00    +0.000 OA
BRANCH  15  16
ATOM     16  S   UNL     1     -10.336  -5.788   5.919  0.00  0.00    +0.000 S 
ATOM     17  O   UNL     1      -9.792  -7.023   6.453  0.00  0.00    +0.000 OA
ATOM     18  O   UNL     1      -9.707  -5.131   4.788  0.00  0.00    +0.000 OA
BRANCH  16  19
ATOM     19  O   UNL     1     -11.893  -6.068   5.522  0.00  0.00    +0.000 OA
ATOM     20  H   UNL     1     -12.032  -6.743   4.816  0.00  0.00    +0.000 HD
ENDBRANCH  16  19
ENDBRANCH  15  16
ENDBRANCH   3  15
TORSDOF 4
ENDMDL
MODEL 5
REMARK VINA RESULT:      -7.2      2.598      5.544
REMARK  Name = 9835049
REMARK  4 active torsions:
REMARK  status: ('A' for Active; 'I' for Inactive)
REMARK    1  A    between atoms: S_1  and  O_2
REMARK    2  A    between atoms: S_1  and  O_5
REMARK    3  A    between atoms: O_2  and  N_9
REMARK    4  A    between atoms: C_14  and  C_17
REMARK                            x       y       z     vdW  Elec       q    Type
REMARK                         _______ _______ _______ _____ _____    ______ ____
ROOT
ATOM      1  O   UNL     1     -11.233  -3.703  10.217  0.00  0.00    +0.000 OA
ATOM      2  N   UNL     1      -8.942  -3.063   9.805  0.00  0.00    +0.000 N 
ATOM      3  N   UNL     1      -9.878  -4.672   8.537  0.00  0.00    +0.000 N 
ATOM      4  C   UNL     1      -8.442  -4.682   8.302  0.00  0.00    +0.000 C 
ATOM      5  C   UNL     1      -8.161  -3.216   8.578  0.00  0.00    +0.000 C 
ATOM      6  C   UNL     1      -7.673  -5.498   9.373  0.00  0.00    +0.000 C 
ATOM      7  C   UNL     1      -8.288  -3.548  11.014  0.00  0.00    +0.000 C 
ATOM      8  C   UNL     1      -7.939  -5.049  10.842  0.00  0.00    +0.000 C 
ATOM      9  C   UNL     1     -10.207  -3.763   9.555  0.00  0.00    +0.000 C 
ENDROOT
BRANCH   7  12
ATOM     10  O   UNL     1      -7.141  -1.486  11.389  0.00  0.00    +0.000 OA
ATOM     11  N   UNL     1      -5.924  -3.437  11.456  0.00  0.00    +0.000 N 
ATOM     12  C   UNL     1      -7.082  -2.710  11.308  0.00  0.00    +0.000 C 
ATOM     13  H   UNL     1      -5.040  -2.979  11.652  0.00  0.00    +0.000 HD
ATOM     14  H   UNL     1      -5.908  -4.450  11.380  0.00  0.00    +0.000 HD
ENDBRANCH   7  12
BRANCH   3  15
ATOM     15  O   UNL     1     -10.605  -5.831   8.309  0.00  0.00    +0.000 OA
BRANCH  15  16
ATOM     16  S   UNL     1     -11.086  -5.971   6.745  0.00  0.00    +0.000 S 
ATOM     17  O   UNL     1     -12.453  -6.460   6.734  0.00  0.00    +0.000 OA
ATOM     18  O   UNL     1     -10.045  -6.669   6.014  0.00  0.00    +0.000 OA
BRANCH  16  19
ATOM     19  O   UNL     1     -11.111  -4.429   6.216  0.00  0.00    +0.000 OA
ATOM     20  H   UNL     1     -10.226  -4.031   6.038  0.00  0.00    +0.000 HD
ENDBRANCH  16  19
ENDBRANCH  15  16
ENDBRANCH   3  15
TORSDOF 4
ENDMDL
MODEL 6
REMARK VINA RESULT:      -7.2      4.933      7.104
REMARK  Name = 9835049
REMARK  4 active torsions:
REMARK  status: ('A' for Active; 'I' for Inactive)
REMARK    1  A    between atoms: S_1  and  O_2
REMARK    2  A    between atoms: S_1  and  O_5
REMARK    3  A    between atoms: O_2  and  N_9
REMARK    4  A    between atoms: C_14  and  C_17
REMARK                            x       y       z     vdW  Elec       q    Type
REMARK                         _______ _______ _______ _____ _____    ______ ____
ROOT
ATOM      1  O   UNL     1      -5.011  -1.058   7.938  0.00  0.00    +0.000 OA
ATOM      2  N   UNL     1      -4.076   0.546   9.481  0.00  0.00    +0.000 N 
ATOM      3  N   UNL     1      -5.748  -0.796  10.171  0.00  0.00    +0.000 N 
ATOM      4  C   UNL     1      -5.571   0.259  11.159  0.00  0.00    +0.000 C 
ATOM      5  C   UNL     1      -4.092   0.519  10.943  0.00  0.00    +0.000 C 
ATOM      6  C   UNL     1      -6.319   1.562  10.773  0.00  0.00    +0.000 C 
ATOM      7  C   UNL     1      -4.515   1.803   8.887  0.00  0.00    +0.000 C 
ATOM      8  C   UNL     1      -5.953   2.124   9.366  0.00  0.00    +0.000 C 
ATOM      9  C   UNL     1      -4.921  -0.576   9.058  0.00  0.00    +0.000 C 
ENDROOT
BRANCH   7  12
ATOM     10  O   UNL     1      -3.906   3.976   9.671  0.00  0.00    +0.000 OA
ATOM     11  N   UNL     1      -2.231   2.559   8.978  0.00  0.00    +0.000 N 
ATOM     12  C   UNL     1      -3.542   2.891   9.227  0.00  0.00    +0.000 C 
ATOM     13  H   UNL     1      -1.482   3.217   9.163  0.00  0.00    +0.000 HD
ATOM     14  H   UNL     1      -1.964   1.652   8.608  0.00  0.00    +0.000 HD
ENDBRANCH   7  12
BRANCH   3  15
ATOM     15  O   UNL     1      -6.982  -1.423  10.071  0.00  0.00    +0.000 OA
BRANCH  15  16
ATOM     16  S   UNL     1      -7.080  -2.766  11.011  0.00  0.00    +0.000 S 
ATOM     17  O   UNL     1      -7.426  -3.890  10.161  0.00  0.00    +0.000 OA
ATOM     18  O   UNL     1      -7.884  -2.443  12.175  0.00  0.00    +0.000 OA
BRANCH  16  19
ATOM     19  O   UNL     1      -5.546  -2.986  11.518  0.00  0.00    +0.000 OA
ATOM     20  H   UNL     1      -5.372  -2.734  12.456  0.00  0.00    +0.000 HD
ENDBRANCH  16  19
ENDBRANCH  15  16
ENDBRANCH   3  15
TORSDOF 4
ENDMDL
MODEL 7
REMARK VINA RESULT:      -7.1      3.284      5.821
REMARK  Name = 9835049
REMARK  4 active torsions:
REMARK  status: ('A' for Active; 'I' for Inactive)
REMARK    1  A    between atoms: S_1  and  O_2
REMARK    2  A    between atoms: S_1  and  O_5
REMARK    3  A    between atoms: O_2  and  N_9
REMARK    4  A    between atoms: C_14  and  C_17
REMARK                            x       y       z     vdW  Elec       q    Type
REMARK                         _______ _______ _______ _____ _____    ______ ____
ROOT
ATOM      1  O   UNL     1      -6.730  -4.441  11.103  0.00  0.00    +0.000 OA
ATOM      2  N   UNL     1      -7.046  -2.269  12.107  0.00  0.00    +0.000 N 
ATOM      3  N   UNL     1      -8.420  -2.921  10.445  0.00  0.00    +0.000 N 
ATOM      4  C   UNL     1      -8.615  -1.496  10.668  0.00  0.00    +0.000 C 
ATOM      5  C   UNL     1      -8.258  -1.450  12.142  0.00  0.00    +0.000 C 
ATOM      6  C   UNL     1      -7.566  -0.631   9.922  0.00  0.00    +0.000 C 
ATOM      7  C   UNL     1      -5.846  -1.571  11.663  0.00  0.00    +0.000 C 
ATOM      8  C   UNL     1      -6.084  -0.992  10.245  0.00  0.00    +0.000 C 
ATOM      9  C   UNL     1      -7.366  -3.406  11.236  0.00  0.00    +0.000 C 
ENDROOT
BRANCH   7  12
ATOM     10  O   UNL     1      -5.428   0.675  12.360  0.00  0.00    +0.000 OA
ATOM     11  N   UNL     1      -5.187  -1.008  13.909  0.00  0.00    +0.000 N 
ATOM     12  C   UNL     1      -5.477  -0.515  12.658  0.00  0.00    +0.000 C 
ATOM     13  H   UNL     1      -4.918  -0.389  14.665  0.00  0.00    +0.000 HD
ATOM     14  H   UNL     1      -5.235  -2.000  14.122  0.00  0.00    +0.000 HD
ENDBRANCH   7  12
BRANCH   3  15
ATOM     15  O   UNL     1      -8.726  -3.456   9.202  0.00  0.00    +0.000 OA
BRANCH  15  16
ATOM     16  S   UNL     1     -10.024  -4.460   9.255  0.00  0.00    +0.000 S 
ATOM     17  O   UNL     1     -10.143  -5.116   7.966  0.00  0.00    +0.000 OA
ATOM     18  O   UNL     1     -11.141  -3.723   9.815  0.00  0.00    +0.000 OA
BRANCH  16  19
ATOM     19  O   UNL     1      -9.585  -5.591  10.344  0.00  0.00    +0.000 OA
ATOM     20  H   UNL     1      -9.736  -6.526  10.065  0.00  0.00    +0.000 HD
ENDBRANCH  16  19
ENDBRANCH  15  16
ENDBRANCH   3  15
TORSDOF 4
ENDMDL
MODEL 8
REMARK VINA RESULT:      -7.1      4.276      5.961
REMARK  Name = 9835049
REMARK  4 active torsions:
REMARK  status: ('A' for Active; 'I' for Inactive)
REMARK    1  A    between atoms: S_1  and  O_2
REMARK    2  A    between atoms: S_1  and  O_5
REMARK    3  A    between atoms: O_2  and  N_9
REMARK    4  A    between atoms: C_14  and  C_17
REMARK                            x       y       z     vdW  Elec       q    Type
REMARK                         _______ _______ _______ _____ _____    ______ ____
ROOT
ATOM      1  O   UNL     1      -6.214   1.450  12.151  0.00  0.00    +0.000 OA
ATOM      2  N   UNL     1      -5.823  -0.526  10.822  0.00  0.00    +0.000 N 
ATOM      3  N   UNL     1      -6.336   1.408   9.788  0.00  0.00    +0.000 N 
ATOM      4  C   UNL     1      -6.445   0.329   8.819  0.00  0.00    +0.000 C 
ATOM      5  C   UNL     1      -5.419  -0.614   9.418  0.00  0.00    +0.000 C 
ATOM      6  C   UNL     1      -7.816  -0.393   8.889  0.00  0.00    +0.000 C 
ATOM      7  C   UNL     1      -6.974  -1.345  11.181  0.00  0.00    +0.000 C 
ATOM      8  C   UNL     1      -8.184  -0.946  10.299  0.00  0.00    +0.000 C 
ATOM      9  C   UNL     1      -6.072   0.898  11.070  0.00  0.00    +0.000 C 
ENDROOT
BRANCH   7  12
ATOM     10  O   UNL     1      -7.277  -3.564  10.348  0.00  0.00    +0.000 OA
ATOM     11  N   UNL     1      -5.531  -3.172  11.795  0.00  0.00    +0.000 N 
ATOM     12  C   UNL     1      -6.624  -2.796  11.050  0.00  0.00    +0.000 C 
ATOM     13  H   UNL     1      -5.202  -4.131  11.792  0.00  0.00    +0.000 HD
ATOM     14  H   UNL     1      -5.014  -2.511  12.367  0.00  0.00    +0.000 HD
ENDBRANCH   7  12
BRANCH   3  15
ATOM     15  O   UNL     1      -7.064   2.572   9.585  0.00  0.00    +0.000 OA
BRANCH  15  16
ATOM     16  S   UNL     1      -6.218   3.701   8.745  0.00  0.00    +0.000 S 
ATOM     17  O   UNL     1      -6.407   3.447   7.328  0.00  0.00    +0.000 OA
ATOM     18  O   UNL     1      -4.884   3.778   9.311  0.00  0.00    +0.000 OA
BRANCH  16  19
ATOM     19  O   UNL     1      -6.986   5.094   9.101  0.00  0.00    +0.000 OA
ATOM     20  H   UNL     1      -7.000   5.764   8.378  0.00  0.00    +0.000 HD
ENDBRANCH  16  19
ENDBRANCH  15  16
ENDBRANCH   3  15
TORSDOF 4
ENDMDL
MODEL 9
REMARK VINA RESULT:      -7.0      2.008      2.708
REMARK  Name = 9835049
REMARK  4 active torsions:
REMARK  status: ('A' for Active; 'I' for Inactive)
REMARK    1  A    between atoms: S_1  and  O_2
REMARK    2  A    between atoms: S_1  and  O_5
REMARK    3  A    between atoms: O_2  and  N_9
REMARK    4  A    between atoms: C_14  and  C_17
REMARK                            x       y       z     vdW  Elec       q    Type
REMARK                         _______ _______ _______ _____ _____    ______ ____
ROOT
ATOM      1  O   UNL     1      -7.590  -0.875   8.820  0.00  0.00    +0.000 OA
ATOM      2  N   UNL     1      -9.364  -2.423   9.350  0.00  0.00    +0.000 N 
ATOM      3  N   UNL     1      -7.541  -2.349  10.671  0.00  0.00    +0.000 N 
ATOM      4  C   UNL     1      -8.305  -3.540  11.012  0.00  0.00    +0.000 C 
ATOM      5  C   UNL     1      -9.686  -3.032  10.641  0.00  0.00    +0.000 C 
ATOM      6  C   UNL     1      -7.995  -4.733  10.071  0.00  0.00    +0.000 C 
ATOM      7  C   UNL     1      -9.269  -3.359   8.237  0.00  0.00    +0.000 C 
ATOM      8  C   UNL     1      -8.191  -4.427   8.555  0.00  0.00    +0.000 C 
ATOM      9  C   UNL     1      -8.105  -1.700   9.560  0.00  0.00    +0.000 C 
ENDROOT
BRANCH   7  12
ATOM     10  O   UNL     1     -10.819  -5.170   8.075  0.00  0.00    +0.000 OA
ATOM     11  N   UNL     1     -11.564  -3.051   7.578  0.00  0.00    +0.000 N 
ATOM     12  C   UNL     1     -10.612  -3.964   7.968  0.00  0.00    +0.000 C 
ATOM     13  H   UNL     1     -12.511  -3.342   7.362  0.00  0.00    +0.000 HD
ATOM     14  H   UNL     1     -11.359  -2.059   7.497  0.00  0.00    +0.000 HD
ENDBRANCH   7  12
BRANCH   3  15
ATOM     15  O   UNL     1      -6.179  -2.325  10.936  0.00  0.00    +0.000 OA
BRANCH  15  16
ATOM     16  S   UNL     1      -5.758  -1.092  11.936  0.00  0.00    +0.000 S 
ATOM     17  O   UNL     1      -6.891  -0.799  12.795  0.00  0.00    +0.000 OA
ATOM     18  O   UNL     1      -5.150  -0.048  11.132  0.00  0.00    +0.000 OA
BRANCH  16  19
ATOM     19  O   UNL     1      -4.590  -1.742  12.868  0.00  0.00    +0.000 OA
ATOM     20  H   UNL     1      -4.409  -2.699  12.712  0.00  0.00    +0.000 HD
ENDBRANCH  16  19
ENDBRANCH  15  16
ENDBRANCH   3  15
TORSDOF 4
ENDMDL
