MODEL 1
REMARK VINA RESULT:      -7.6      0.000      0.000
REMARK  Name = 5280980
REMARK  4 active torsions:
REMARK  status: ('A' for Active; 'I' for Inactive)
REMARK    1  A    between atoms: O_3  and  C_12
REMARK    2  A    between atoms: O_5  and  C_14
REMARK    3  A    between atoms: C_8  and  C_12
REMARK    4  A    between atoms: C_13  and  C_14
REMARK                            x       y       z     vdW  Elec       q    Type
REMARK                         _______ _______ _______ _____ _____    ______ ____
ROOT
ATOM      1  O   UNL     1      -7.668  -2.215   9.272  0.00  0.00    +0.000 OA
ATOM      2  O   UNL     1     -11.523  -3.700   9.840  0.00  0.00    +0.000 OA
ATOM      3  N   UNL     1      -9.215  -4.001   9.454  0.00  0.00    +0.000 N 
ATOM      4  C   UNL     1      -8.569  -3.069   8.526  0.00  0.00    +0.000 C 
ATOM      5  C   UNL     1      -8.521  -4.010  10.715  0.00  0.00    +0.000 C 
ATOM      6  C   UNL     1      -9.974  -2.554   8.167  0.00  0.00    +0.000 C 
ATOM      7  C   UNL     1     -10.475  -3.511   9.264  0.00  0.00    +0.000 C 
ATOM      8  C   UNL     1      -7.619  -2.809  10.548  0.00  0.00    +0.000 C 
ATOM      9  C   UNL     1      -6.862  -2.281  11.517  0.00  0.00    +0.000 C 
ENDROOT
BRANCH   5  11
ATOM     10  O   UNL     1      -7.021  -5.697   9.867  0.00  0.00    +0.000 OA
ATOM     11  C   UNL     1      -7.709  -5.261  10.777  0.00  0.00    +0.000 C 
BRANCH  11  12
ATOM     12  O   UNL     1      -7.839  -5.855  11.989  0.00  0.00    +0.000 OA
ATOM     13  H   UNL     1      -7.133  -5.577  12.611  0.00  0.00    +0.000 HD
ENDBRANCH  11  12
ENDBRANCH   5  11
BRANCH   9  14
ATOM     14  C   UNL     1      -5.977  -1.094  11.331  0.00  0.00    +0.000 C 
BRANCH  14  15
ATOM     15  O   UNL     1      -5.204  -1.279  10.154  0.00  0.00    +0.000 OA
ATOM     16  H   UNL     1      -4.268  -1.312  10.416  0.00  0.00    +0.000 HD
ENDBRANCH  14  15
ENDBRANCH   9  14
TORSDOF 4
ENDMDL
MODEL 2
REMARK VINA RESULT:      -7.0      2.550      4.633
REMARK  Name = 5280980
REMARK  4 active torsions:
REMARK  status: ('A' for Active; 'I' for Inactive)
REMARK    1  A    between atoms: O_3  and  C_12
REMARK    2  A    between atoms: O_5  and  C_14
REMARK    3  A    between atoms: C_8  and  C_12
REMARK    4  A    between atoms: C_13  and  C_14
REMARK                            x       y       z     vdW  Elec       q    Type
REMARK                         _______ _______ _______ _____ _____    ______ ____
ROOT
ATOM      1  O   UNL     1      -8.040  -1.849  10.398  0.00  0.00    +0.000 OA
ATOM      2  O   UNL     1      -5.131   0.857   9.130  0.00  0.00    +0.000 OA
ATOM      3  N   UNL     1      -6.602  -0.001  10.764  0.00  0.00    +0.000 N 
ATOM      4  C   UNL     1      -7.935  -0.407  10.311  0.00  0.00    +0.000 C 
ATOM      5  C   UNL     1      -5.959  -1.087  11.456  0.00  0.00    +0.000 C 
ATOM      6  C   UNL     1      -7.603   0.246   8.958  0.00  0.00    +0.000 C 
ATOM      7  C   UNL     1      -6.205   0.492   9.554  0.00  0.00    +0.000 C 
ATOM      8  C   UNL     1      -6.888  -2.229  11.113  0.00  0.00    +0.000 C 
ATOM      9  C   UNL     1      -6.652  -3.515  11.392  0.00  0.00    +0.000 C 
ENDROOT
BRANCH   5  11
ATOM     10  O   UNL     1      -5.104  -0.328  13.580  0.00  0.00    +0.000 OA
ATOM     11  C   UNL     1      -6.021  -0.792  12.919  0.00  0.00    +0.000 C 
BRANCH  11  12
ATOM     12  O   UNL     1      -7.238  -1.113  13.420  0.00  0.00    +0.000 OA
ATOM     13  H   UNL     1      -7.710  -1.760  12.853  0.00  0.00    +0.000 HD
ENDBRANCH  11  12
ENDBRANCH   5  11
BRANCH   9  14
ATOM     14  C   UNL     1      -7.583  -4.629  11.044  0.00  0.00    +0.000 C 
BRANCH  14  15
ATOM     15  O   UNL     1      -6.912  -5.533  10.179  0.00  0.00    +0.000 OA
ATOM     16  H   UNL     1      -6.889  -6.401  10.618  0.00  0.00    +0.000 HD
ENDBRANCH  14  15
ENDBRANCH   9  14
TORSDOF 4
ENDMDL
MODEL 3
REMARK VINA RESULT:      -6.6      3.569      6.337
REMARK  Name = 5280980
REMARK  4 active torsions:
REMARK  status: ('A' for Active; 'I' for Inactive)
REMARK    1  A    between atoms: O_3  and  C_12
REMARK    2  A    between atoms: O_5  and  C_14
REMARK    3  A    between atoms: C_8  and  C_12
REMARK    4  A    between atoms: C_13  and  C_14
REMARK                            x       y       z     vdW  Elec       q    Type
REMARK                         _______ _______ _______ _____ _____    ______ ____
ROOT
ATOM      1  O   UNL     1      -5.153  -1.028   9.515  0.00  0.00    +0.000 OA
ATOM      2  O   UNL     1      -2.920   2.287  10.707  0.00  0.00    +0.000 OA
ATOM      3  N   UNL     1      -4.735   1.305   9.562  0.00  0.00    +0.000 N 
ATOM      4  C   UNL     1      -4.469   0.057   8.842  0.00  0.00    +0.000 C 
ATOM      5  C   UNL     1      -5.832   1.128  10.477  0.00  0.00    +0.000 C 
ATOM      6  C   UNL     1      -2.974   0.293   9.115  0.00  0.00    +0.000 C 
ATOM      7  C   UNL     1      -3.437   1.510   9.936  0.00  0.00    +0.000 C 
ATOM      8  C   UNL     1      -5.984  -0.375  10.448  0.00  0.00    +0.000 C 
ATOM      9  C   UNL     1      -6.783  -1.078  11.257  0.00  0.00    +0.000 C 
ENDROOT
BRANCH   5  11
ATOM     10  O   UNL     1      -7.841   1.226   9.145  0.00  0.00    +0.000 OA
ATOM     11  C   UNL     1      -7.033   1.780   9.876  0.00  0.00    +0.000 C 
BRANCH  11  12
ATOM     12  O   UNL     1      -7.109   3.081  10.250  0.00  0.00    +0.000 OA
ATOM     13  H   UNL     1      -7.348   3.176  11.197  0.00  0.00    +0.000 HD
ENDBRANCH  11  12
ENDBRANCH   5  11
BRANCH   9  14
ATOM     14  C   UNL     1      -6.918  -2.564  11.212  0.00  0.00    +0.000 C 
BRANCH  14  15
ATOM     15  O   UNL     1      -5.655  -3.147  11.500  0.00  0.00    +0.000 OA
ATOM     16  H   UNL     1      -5.092  -2.457  11.892  0.00  0.00    +0.000 HD
ENDBRANCH  14  15
ENDBRANCH   9  14
TORSDOF 4
ENDMDL
MODEL 4
REMARK VINA RESULT:      -6.6      1.445      3.975
REMARK  Name = 5280980
REMARK  4 active torsions:
REMARK  status: ('A' for Active; 'I' for Inactive)
REMARK    1  A    between atoms: O_3  and  C_12
REMARK    2  A    between atoms: O_5  and  C_14
REMARK    3  A    between atoms: C_8  and  C_12
REMARK    4  A    between atoms: C_13  and  C_14
REMARK                            x       y       z     vdW  Elec       q    Type
REMARK                         _______ _______ _______ _____ _____    ______ ____
ROOT
ATOM      1  O   UNL     1      -9.785  -2.892  10.505  0.00  0.00    +0.000 OA
ATOM      2  O   UNL     1      -5.855  -1.533  10.191  0.00  0.00    +0.000 OA
ATOM      3  N   UNL     1      -7.474  -3.044  11.007  0.00  0.00    +0.000 N 
ATOM      4  C   UNL     1      -8.755  -2.478  11.436  0.00  0.00    +0.000 C 
ATOM      5  C   UNL     1      -7.688  -4.080  10.031  0.00  0.00    +0.000 C 
ATOM      6  C   UNL     1      -8.117  -1.086  11.285  0.00  0.00    +0.000 C 
ATOM      7  C   UNL     1      -6.888  -1.839  10.744  0.00  0.00    +0.000 C 
ATOM      8  C   UNL     1      -9.150  -3.868   9.712  0.00  0.00    +0.000 C 
ATOM      9  C   UNL     1      -9.816  -4.487   8.731  0.00  0.00    +0.000 C 
ENDROOT
BRANCH   5  11
ATOM     10  O   UNL     1      -7.903  -5.671  11.832  0.00  0.00    +0.000 OA
ATOM     11  C   UNL     1      -7.494  -5.393  10.714  0.00  0.00    +0.000 C 
BRANCH  11  12
ATOM     12  O   UNL     1      -6.796  -6.245   9.923  0.00  0.00    +0.000 OA
ATOM     13  H   UNL     1      -5.918  -5.883   9.679  0.00  0.00    +0.000 HD
ENDBRANCH  11  12
ENDBRANCH   5  11
BRANCH   9  14
ATOM     14  C   UNL     1     -11.261  -4.263   8.433  0.00  0.00    +0.000 C 
BRANCH  14  15
ATOM     15  O   UNL     1     -11.438  -2.917   8.014  0.00  0.00    +0.000 OA
ATOM     16  H   UNL     1     -10.679  -2.679   7.453  0.00  0.00    +0.000 HD
ENDBRANCH  14  15
ENDBRANCH   9  14
TORSDOF 4
ENDMDL
MODEL 5
REMARK VINA RESULT:      -6.3      3.635      5.547
REMARK  Name = 5280980
REMARK  4 active torsions:
REMARK  status: ('A' for Active; 'I' for Inactive)
REMARK    1  A    between atoms: O_3  and  C_12
REMARK    2  A    between atoms: O_5  and  C_14
REMARK    3  A    between atoms: C_8  and  C_12
REMARK    4  A    between atoms: C_13  and  C_14
REMARK                            x       y       z     vdW  Elec       q    Type
REMARK                         _______ _______ _______ _____ _____    ______ ____
ROOT
ATOM      1  O   UNL     1      -7.555   0.120  10.691  0.00  0.00    +0.000 OA
ATOM      2  O   UNL     1      -5.208   1.221   7.423  0.00  0.00    +0.000 OA
ATOM      3  N   UNL     1      -5.679   1.210   9.736  0.00  0.00    +0.000 N 
ATOM      4  C   UNL     1      -7.082   1.369  10.129  0.00  0.00    +0.000 C 
ATOM      5  C   UNL     1      -5.128   0.019  10.326  0.00  0.00    +0.000 C 
ATOM      6  C   UNL     1      -7.389   1.700   8.658  0.00  0.00    +0.000 C 
ATOM      7  C   UNL     1      -5.905   1.382   8.400  0.00  0.00    +0.000 C 
ATOM      8  C   UNL     1      -6.384  -0.648  10.839  0.00  0.00    +0.000 C 
ATOM      9  C   UNL     1      -6.439  -1.884  11.347  0.00  0.00    +0.000 C 
ENDROOT
BRANCH   5  11
ATOM     10  O   UNL     1      -4.647   1.046  12.455  0.00  0.00    +0.000 OA
ATOM     11  C   UNL     1      -4.262   0.437  11.467  0.00  0.00    +0.000 C 
BRANCH  11  12
ATOM     12  O   UNL     1      -2.979   0.050  11.262  0.00  0.00    +0.000 OA
ATOM     13  H   UNL     1      -2.472   0.718  10.753  0.00  0.00    +0.000 HD
ENDBRANCH  11  12
ENDBRANCH   5  11
BRANCH   9  14
ATOM     14  C   UNL     1      -7.691  -2.524  11.849  0.00  0.00    +0.000 C 
BRANCH  14  15
ATOM     15  O   UNL     1      -8.062  -1.906  13.072  0.00  0.00    +0.000 OA
ATOM     16  H   UNL     1      -7.816  -0.966  13.016  0.00  0.00    +0.000 HD
ENDBRANCH  14  15
ENDBRANCH   9  14
TORSDOF 4
ENDMDL
MODEL 6
REMARK VINA RESULT:      -6.1      5.022      7.011
REMARK  Name = 5280980
REMARK  4 active torsions:
REMARK  status: ('A' for Active; 'I' for Inactive)
REMARK    1  A    between atoms: O_3  and  C_12
REMARK    2  A    between atoms: O_5  and  C_14
REMARK    3  A    between atoms: C_8  and  C_12
REMARK    4  A    between atoms: C_13  and  C_14
REMARK                            x       y       z     vdW  Elec       q    Type
REMARK                         _______ _______ _______ _____ _____    ______ ____
ROOT
ATOM      1  O   UNL     1      -3.275   0.560  11.479  0.00  0.00    +0.000 OA
ATOM      2  O   UNL     1      -3.439   3.760   8.809  0.00  0.00    +0.000 OA
ATOM      3  N   UNL     1      -3.045   1.487   9.310  0.00  0.00    +0.000 N 
ATOM      4  C   UNL     1      -2.348   1.195  10.565  0.00  0.00    +0.000 C 
ATOM      5  C   UNL     1      -4.289   0.767   9.251  0.00  0.00    +0.000 C 
ATOM      6  C   UNL     1      -2.077   2.704  10.692  0.00  0.00    +0.000 C 
ATOM      7  C   UNL     1      -2.937   2.844   9.423  0.00  0.00    +0.000 C 
ATOM      8  C   UNL     1      -4.398   0.277  10.677  0.00  0.00    +0.000 C 
ATOM      9  C   UNL     1      -5.471  -0.329  11.196  0.00  0.00    +0.000 C 
ENDROOT
BRANCH   5  11
ATOM     10  O   UNL     1      -3.030  -0.752   7.864  0.00  0.00    +0.000 OA
ATOM     11  C   UNL     1      -4.102  -0.386   8.321  0.00  0.00    +0.000 C 
BRANCH  11  12
ATOM     12  O   UNL     1      -5.291  -0.977   8.048  0.00  0.00    +0.000 OA
ATOM     13  H   UNL     1      -5.234  -1.955   8.100  0.00  0.00    +0.000 HD
ENDBRANCH  11  12
ENDBRANCH   5  11
BRANCH   9  14
ATOM     14  C   UNL     1      -5.558  -0.806  12.608  0.00  0.00    +0.000 C 
BRANCH  14  15
ATOM     15  O   UNL     1      -4.522  -1.750  12.837  0.00  0.00    +0.000 OA
ATOM     16  H   UNL     1      -3.676  -1.271  12.827  0.00  0.00    +0.000 HD
ENDBRANCH  14  15
ENDBRANCH   9  14
TORSDOF 4
ENDMDL
MODEL 7
REMARK VINA RESULT:      -6.1      8.050      9.862
REMARK  Name = 5280980
REMARK  4 active torsions:
REMARK  status: ('A' for Active; 'I' for Inactive)
REMARK    1  A    between atoms: O_3  and  C_12
REMARK    2  A    between atoms: O_5  and  C_14
REMARK    3  A    between atoms: C_8  and  C_12
REMARK    4  A    between atoms: C_13  and  C_14
REMARK                            x       y       z     vdW  Elec       q    Type
REMARK                         _______ _______ _______ _____ _____    ______ ____
ROOT
ATOM      1  O   UNL     1      -0.684   0.619   6.209  0.00  0.00    +0.000 OA
ATOM      2  O   UNL     1      -0.657   2.287   2.386  0.00  0.00    +0.000 OA
ATOM      3  N   UNL     1      -0.524   0.441   3.851  0.00  0.00    +0.000 N 
ATOM      4  C   UNL     1       0.236   0.629   5.089  0.00  0.00    +0.000 C 
ATOM      5  C   UNL     1      -1.853  -0.025   4.147  0.00  0.00    +0.000 C 
ATOM      6  C   UNL     1       0.714   1.974   4.516  0.00  0.00    +0.000 C 
ATOM      7  C   UNL     1      -0.229   1.672   3.337  0.00  0.00    +0.000 C 
ATOM      8  C   UNL     1      -1.900   0.191   5.642  0.00  0.00    +0.000 C 
ATOM      9  C   UNL     1      -2.994   0.055   6.399  0.00  0.00    +0.000 C 
ENDROOT
BRANCH   5  11
ATOM     10  O   UNL     1      -1.263  -2.348   4.413  0.00  0.00    +0.000 OA
ATOM     11  C   UNL     1      -1.903  -1.483   3.833  0.00  0.00    +0.000 C 
BRANCH  11  12
ATOM     12  O   UNL     1      -2.760  -1.724   2.811  0.00  0.00    +0.000 OA
ATOM     13  H   UNL     1      -3.063  -2.657   2.798  0.00  0.00    +0.000 HD
ENDBRANCH  11  12
ENDBRANCH   5  11
BRANCH   9  14
ATOM     14  C   UNL     1      -3.019   0.273   7.876  0.00  0.00    +0.000 C 
BRANCH  14  15
ATOM     15  O   UNL     1      -3.661  -0.834   8.491  0.00  0.00    +0.000 OA
ATOM     16  H   UNL     1      -3.830  -0.601   9.420  0.00  0.00    +0.000 HD
ENDBRANCH  14  15
ENDBRANCH   9  14
TORSDOF 4
ENDMDL
MODEL 8
REMARK VINA RESULT:      -6.0      1.937      2.322
REMARK  Name = 5280980
REMARK  4 active torsions:
REMARK  status: ('A' for Active; 'I' for Inactive)
REMARK    1  A    between atoms: O_3  and  C_12
REMARK    2  A    between atoms: O_5  and  C_14
REMARK    3  A    between atoms: C_8  and  C_12
REMARK    4  A    between atoms: C_13  and  C_14
REMARK                            x       y       z     vdW  Elec       q    Type
REMARK                         _______ _______ _______ _____ _____    ______ ____
ROOT
ATOM      1  O   UNL     1      -8.044  -3.158   8.059  0.00  0.00    +0.000 OA
ATOM      2  O   UNL     1     -11.465  -3.802  10.356  0.00  0.00    +0.000 OA
ATOM      3  N   UNL     1      -9.128  -3.877  10.040  0.00  0.00    +0.000 N 
ATOM      4  C   UNL     1      -8.649  -4.296   8.721  0.00  0.00    +0.000 C 
ATOM      5  C   UNL     1      -8.561  -2.603  10.395  0.00  0.00    +0.000 C 
ATOM      6  C   UNL     1     -10.100  -4.680   8.387  0.00  0.00    +0.000 C 
ATOM      7  C   UNL     1     -10.448  -4.090   9.765  0.00  0.00    +0.000 C 
ATOM      8  C   UNL     1      -7.962  -2.183   9.073  0.00  0.00    +0.000 C 
ATOM      9  C   UNL     1      -7.438  -0.979   8.820  0.00  0.00    +0.000 C 
ENDROOT
BRANCH   5  11
ATOM     10  O   UNL     1      -6.419  -3.407  11.160  0.00  0.00    +0.000 OA
ATOM     11  C   UNL     1      -7.481  -2.850  11.396  0.00  0.00    +0.000 C 
BRANCH  11  12
ATOM     12  O   UNL     1      -7.838  -2.372  12.613  0.00  0.00    +0.000 OA
ATOM     13  H   UNL     1      -8.717  -2.705  12.894  0.00  0.00    +0.000 HD
ENDBRANCH  11  12
ENDBRANCH   5  11
BRANCH   9  14
ATOM     14  C   UNL     1      -6.852  -0.584   7.505  0.00  0.00    +0.000 C 
BRANCH  14  15
ATOM     15  O   UNL     1      -5.905  -1.567   7.112  0.00  0.00    +0.000 OA
ATOM     16  H   UNL     1      -6.328  -2.439   7.203  0.00  0.00    +0.000 HD
ENDBRANCH  14  15
ENDBRANCH   9  14
TORSDOF 4
ENDMDL
MODEL 9
REMARK VINA RESULT:      -5.9      1.915      4.072
REMARK  Name = 5280980
REMARK  4 active torsions:
REMARK  status: ('A' for Active; 'I' for Inactive)
REMARK    1  A    between atoms: O_3  and  C_12
REMARK    2  A    between atoms: O_5  and  C_14
REMARK    3  A    between atoms: C_8  and  C_12
REMARK    4  A    between atoms: C_13  and  C_14
REMARK                            x       y       z     vdW  Elec       q    Type
REMARK                         _______ _______ _______ _____ _____    ______ ____
ROOT
ATOM      1  O   UNL     1      -9.934  -2.803   9.246  0.00  0.00    +0.000 OA
ATOM      2  O   UNL     1      -6.226  -3.242  11.104  0.00  0.00    +0.000 OA
ATOM      3  N   UNL     1      -8.262  -4.117  10.292  0.00  0.00    +0.000 N 
ATOM      4  C   UNL     1      -9.467  -3.315  10.518  0.00  0.00    +0.000 C 
ATOM      5  C   UNL     1      -8.121  -4.422   8.892  0.00  0.00    +0.000 C 
ATOM      6  C   UNL     1      -8.617  -2.413  11.430  0.00  0.00    +0.000 C 
ATOM      7  C   UNL     1      -7.431  -3.292  10.994  0.00  0.00    +0.000 C 
ATOM      8  C   UNL     1      -9.158  -3.497   8.297  0.00  0.00    +0.000 C 
ATOM      9  C   UNL     1      -9.326  -3.279   6.988  0.00  0.00    +0.000 C 
ENDROOT
BRANCH   5  11
ATOM     10  O   UNL     1      -9.479  -6.386   9.235  0.00  0.00    +0.000 OA
ATOM     11  C   UNL     1      -8.525  -5.846   8.695  0.00  0.00    +0.000 C 
BRANCH  11  12
ATOM     12  O   UNL     1      -7.685  -6.466   7.831  0.00  0.00    +0.000 OA
ATOM     13  H   UNL     1      -7.427  -7.358   8.147  0.00  0.00    +0.000 HD
ENDBRANCH  11  12
ENDBRANCH   5  11
BRANCH   9  14
ATOM     14  C   UNL     1     -10.358  -2.361   6.422  0.00  0.00    +0.000 C 
BRANCH  14  15
ATOM     15  O   UNL     1     -11.579  -2.559   7.118  0.00  0.00    +0.000 OA
ATOM     16  H   UNL     1     -12.299  -2.221   6.557  0.00  0.00    +0.000 HD
ENDBRANCH  14  15
ENDBRANCH   9  14
TORSDOF 4
ENDMDL
