MODEL 1
REMARK VINA RESULT:      -9.5      0.000      0.000
REMARK  Name = 441130
REMARK  11 active torsions:
REMARK  status: ('A' for Active; 'I' for Inactive)
REMARK    1  A    between atoms: S_1  and  C_14
REMARK    2  A    between atoms: S_1  and  C_18
REMARK    3  A    between atoms: O_3  and  C_16
REMARK    4  A    between atoms: O_4  and  C_23
REMARK    5  A    between atoms: N_9  and  C_25
REMARK    6  A    between atoms: N_9  and  C_26
REMARK    7  A    between atoms: C_11  and  C_16
REMARK    8  A    between atoms: C_12  and  C_17
REMARK    9  A    between atoms: C_15  and  C_23
REMARK   10  A    between atoms: C_16  and  C_20
REMARK   11  A    between atoms: C_22  and  C_24
REMARK                            x       y       z     vdW  Elec       q    Type
REMARK                         _______ _______ _______ _____ _____    ______ ____
ROOT
ATOM      1  O   UNL     1      -9.542  -5.547  10.713  0.00  0.00    +0.000 OA
ATOM      2  N   UNL     1      -8.090  -4.252   9.380  0.00  0.00    +0.000 N 
ATOM      3  C   UNL     1      -8.499  -3.929   7.997  0.00  0.00    +0.000 C 
ATOM      4  C   UNL     1      -9.724  -4.860   8.258  0.00  0.00    +0.000 C 
ATOM      5  C   UNL     1      -8.458  -2.386   7.949  0.00  0.00    +0.000 C 
ATOM      6  C   UNL     1      -9.162  -5.034   9.685  0.00  0.00    +0.000 C 
ATOM      7  C   UNL     1      -7.835  -2.032   9.289  0.00  0.00    +0.000 C 
ATOM      8  C   UNL     1      -7.689  -3.130  10.043  0.00  0.00    +0.000 C 
ATOM      9  C   UNL     1      -9.806  -1.732   7.694  0.00  0.00    +0.000 C 
ENDROOT
BRANCH   8  11
ATOM     10  O   UNL     1      -7.865  -2.915  12.404  0.00  0.00    +0.000 OA
ATOM     11  C   UNL     1      -7.211  -3.219  11.419  0.00  0.00    +0.000 C 
BRANCH  11  12
ATOM     12  O   UNL     1      -5.943  -3.688  11.434  0.00  0.00    +0.000 OA
ATOM     13  H   UNL     1      -5.795  -4.371  10.745  0.00  0.00    +0.000 HD
ENDBRANCH  11  12
ENDBRANCH   8  11
BRANCH   4  14
ATOM     14  C   UNL     1      -9.937  -6.151   7.509  0.00  0.00    +0.000 C 
ATOM     15  C   UNL     1     -10.639  -5.910   6.177  0.00  0.00    +0.000 C 
BRANCH  14  16
ATOM     16  O   UNL     1      -8.675  -6.773   7.262  0.00  0.00    +0.000 OA
ATOM     17  H   UNL     1      -8.343  -7.111   8.112  0.00  0.00    +0.000 HD
ENDBRANCH  14  16
ENDBRANCH   4  14
BRANCH   7  18
ATOM     18  S   UNL     1      -7.410  -0.425   9.722  0.00  0.00    +0.000 S 
BRANCH  18  20
ATOM     19  N   UNL     1      -3.742   0.078  11.191  0.00  0.00    +0.000 NA
ATOM     20  C   UNL     1      -5.635  -0.632  10.015  0.00  0.00    +0.000 C 
ATOM     21  C   UNL     1      -4.766   0.117   9.008  0.00  0.00    +0.000 C 
ATOM     22  C   UNL     1      -5.197  -0.064  11.353  0.00  0.00    +0.000 C 
ATOM     23  C   UNL     1      -3.541   0.549   9.812  0.00  0.00    +0.000 C 
ATOM     24  H   UNL     1      -3.353   0.716  11.883  0.00  0.00    +0.000 HD
BRANCH  23  27
ATOM     25  O   UNL     1      -4.424   2.735   9.862  0.00  0.00    +0.000 OA
ATOM     26  N   UNL     1      -2.110   2.547   9.958  0.00  0.00    +0.000 N 
ATOM     27  C   UNL     1      -3.407   2.038   9.879  0.00  0.00    +0.000 C 
ATOM     28  C   UNL     1      -1.837   3.976  10.029  0.00  0.00    +0.000 C 
ATOM     29  C   UNL     1      -0.932   1.684   9.976  0.00  0.00    +0.000 C 
ENDBRANCH  23  27
ENDBRANCH  18  20
ENDBRANCH   7  18
TORSDOF 7
ENDMDL
MODEL 2
REMARK VINA RESULT:      -9.4      3.046      4.162
REMARK  Name = 441130
REMARK  11 active torsions:
REMARK  status: ('A' for Active; 'I' for Inactive)
REMARK    1  A    between atoms: S_1  and  C_14
REMARK    2  A    between atoms: S_1  and  C_18
REMARK    3  A    between atoms: O_3  and  C_16
REMARK    4  A    between atoms: O_4  and  C_23
REMARK    5  A    between atoms: N_9  and  C_25
REMARK    6  A    between atoms: N_9  and  C_26
REMARK    7  A    between atoms: C_11  and  C_16
REMARK    8  A    between atoms: C_12  and  C_17
REMARK    9  A    between atoms: C_15  and  C_23
REMARK   10  A    between atoms: C_16  and  C_20
REMARK   11  A    between atoms: C_22  and  C_24
REMARK                            x       y       z     vdW  Elec       q    Type
REMARK                         _______ _______ _______ _____ _____    ______ ____
ROOT
ATOM      1  O   UNL     1      -8.136  -1.886  13.061  0.00  0.00    +0.000 OA
ATOM      2  N   UNL     1      -6.691  -1.782  11.200  0.00  0.00    +0.000 N 
ATOM      3  C   UNL     1      -7.281  -1.767   9.846  0.00  0.00    +0.000 C 
ATOM      4  C   UNL     1      -8.652  -1.985  10.560  0.00  0.00    +0.000 C 
ATOM      5  C   UNL     1      -6.724  -0.474   9.212  0.00  0.00    +0.000 C 
ATOM      6  C   UNL     1      -7.860  -1.920  11.883  0.00  0.00    +0.000 C 
ATOM      7  C   UNL     1      -5.715  -0.008  10.248  0.00  0.00    +0.000 C 
ATOM      8  C   UNL     1      -5.781  -0.776  11.344  0.00  0.00    +0.000 C 
ATOM      9  C   UNL     1      -7.783   0.558   8.861  0.00  0.00    +0.000 C 
ENDROOT
BRANCH   8  11
ATOM     10  O   UNL     1      -4.986   0.415  13.242  0.00  0.00    +0.000 OA
ATOM     11  C   UNL     1      -5.048  -0.620  12.597  0.00  0.00    +0.000 C 
BRANCH  11  12
ATOM     12  O   UNL     1      -4.455  -1.788  12.929  0.00  0.00    +0.000 OA
ATOM     13  H   UNL     1      -4.290  -2.353  12.145  0.00  0.00    +0.000 HD
ENDBRANCH  11  12
ENDBRANCH   8  11
BRANCH   4  14
ATOM     14  C   UNL     1      -9.469  -3.240  10.383  0.00  0.00    +0.000 C 
ATOM     15  C   UNL     1     -10.307  -3.180   9.110  0.00  0.00    +0.000 C 
BRANCH  14  16
ATOM     16  O   UNL     1      -8.599  -4.371  10.312  0.00  0.00    +0.000 OA
ATOM     17  H   UNL     1      -8.550  -4.644   9.380  0.00  0.00    +0.000 HD
ENDBRANCH  14  16
ENDBRANCH   4  14
BRANCH   7  18
ATOM     18  S   UNL     1      -4.672   1.333   9.994  0.00  0.00    +0.000 S 
BRANCH  18  20
ATOM     19  N   UNL     1      -1.650   0.638   7.494  0.00  0.00    +0.000 NA
ATOM     20  C   UNL     1      -3.296   0.510   9.151  0.00  0.00    +0.000 C 
ATOM     21  C   UNL     1      -3.747  -0.425   8.032  0.00  0.00    +0.000 C 
ATOM     22  C   UNL     1      -2.379   1.492   8.444  0.00  0.00    +0.000 C 
ATOM     23  C   UNL     1      -2.641  -0.322   6.983  0.00  0.00    +0.000 C 
ATOM     24  H   UNL     1      -1.221   1.190   6.753  0.00  0.00    +0.000 HD
BRANCH  23  27
ATOM     25  O   UNL     1      -3.977   1.139   5.700  0.00  0.00    +0.000 OA
ATOM     26  N   UNL     1      -2.627  -0.341   4.521  0.00  0.00    +0.000 N 
ATOM     27  C   UNL     1      -3.145   0.228   5.686  0.00  0.00    +0.000 C 
ATOM     28  C   UNL     1      -3.032   0.099   3.192  0.00  0.00    +0.000 C 
ATOM     29  C   UNL     1      -1.643  -1.419   4.550  0.00  0.00    +0.000 C 
ENDBRANCH  23  27
ENDBRANCH  18  20
ENDBRANCH   7  18
TORSDOF 7
ENDMDL
MODEL 3
REMARK VINA RESULT:      -8.8      3.512      5.971
REMARK  Name = 441130
REMARK  11 active torsions:
REMARK  status: ('A' for Active; 'I' for Inactive)
REMARK    1  A    between atoms: S_1  and  C_14
REMARK    2  A    between atoms: S_1  and  C_18
REMARK    3  A    between atoms: O_3  and  C_16
REMARK    4  A    between atoms: O_4  and  C_23
REMARK    5  A    between atoms: N_9  and  C_25
REMARK    6  A    between atoms: N_9  and  C_26
REMARK    7  A    between atoms: C_11  and  C_16
REMARK    8  A    between atoms: C_12  and  C_17
REMARK    9  A    between atoms: C_15  and  C_23
REMARK   10  A    between atoms: C_16  and  C_20
REMARK   11  A    between atoms: C_22  and  C_24
REMARK                            x       y       z     vdW  Elec       q    Type
REMARK                         _______ _______ _______ _____ _____    ______ ____
ROOT
ATOM      1  O   UNL     1      -5.082  -0.045  13.309  0.00  0.00    +0.000 OA
ATOM      2  N   UNL     1      -4.507  -0.211  11.027  0.00  0.00    +0.000 N 
ATOM      3  C   UNL     1      -5.521  -0.713  10.077  0.00  0.00    +0.000 C 
ATOM      4  C   UNL     1      -6.409  -0.977  11.334  0.00  0.00    +0.000 C 
ATOM      5  C   UNL     1      -5.645   0.418   9.034  0.00  0.00    +0.000 C 
ATOM      6  C   UNL     1      -5.251  -0.370  12.155  0.00  0.00    +0.000 C 
ATOM      7  C   UNL     1      -4.521   1.359   9.434  0.00  0.00    +0.000 C 
ATOM      8  C   UNL     1      -3.953   0.952  10.577  0.00  0.00    +0.000 C 
ATOM      9  C   UNL     1      -7.017   1.070   8.978  0.00  0.00    +0.000 C 
ENDROOT
BRANCH   8  11
ATOM     10  O   UNL     1      -1.745   1.737  10.974  0.00  0.00    +0.000 OA
ATOM     11  C   UNL     1      -2.902   1.612  11.344  0.00  0.00    +0.000 C 
BRANCH  11  12
ATOM     12  O   UNL     1      -3.402   2.060  12.517  0.00  0.00    +0.000 OA
ATOM     13  H   UNL     1      -2.771   2.646  12.986  0.00  0.00    +0.000 HD
ENDBRANCH  11  12
ENDBRANCH   8  11
BRANCH   4  14
ATOM     14  C   UNL     1      -6.818  -2.363  11.762  0.00  0.00    +0.000 C 
ATOM     15  C   UNL     1      -8.142  -2.772  11.126  0.00  0.00    +0.000 C 
BRANCH  14  16
ATOM     16  O   UNL     1      -5.810  -3.300  11.377  0.00  0.00    +0.000 OA
ATOM     17  H   UNL     1      -6.229  -4.176  11.323  0.00  0.00    +0.000 HD
ENDBRANCH  14  16
ENDBRANCH   4  14
BRANCH   7  18
ATOM     18  S   UNL     1      -4.093   2.743   8.511  0.00  0.00    +0.000 S 
BRANCH  18  20
ATOM     19  N   UNL     1      -1.222   2.129   5.819  0.00  0.00    +0.000 NA
ATOM     20  C   UNL     1      -2.571   2.148   7.729  0.00  0.00    +0.000 C 
ATOM     21  C   UNL     1      -2.709   0.752   7.127  0.00  0.00    +0.000 C 
ATOM     22  C   UNL     1      -2.152   3.004   6.549  0.00  0.00    +0.000 C 
ATOM     23  C   UNL     1      -1.805   0.781   5.895  0.00  0.00    +0.000 C 
ATOM     24  H   UNL     1      -1.091   2.446   4.860  0.00  0.00    +0.000 HD
BRANCH  23  27
ATOM     25  O   UNL     1      -3.319   1.463   4.220  0.00  0.00    +0.000 OA
ATOM     26  N   UNL     1      -2.385  -0.652   3.979  0.00  0.00    +0.000 N 
ATOM     27  C   UNL     1      -2.572   0.570   4.628  0.00  0.00    +0.000 C 
ATOM     28  C   UNL     1      -3.070  -0.987   2.737  0.00  0.00    +0.000 C 
ATOM     29  C   UNL     1      -1.489  -1.683   4.497  0.00  0.00    +0.000 C 
ENDBRANCH  23  27
ENDBRANCH  18  20
ENDBRANCH   7  18
TORSDOF 7
ENDMDL
MODEL 4
REMARK VINA RESULT:      -8.8      2.980      4.098
REMARK  Name = 441130
REMARK  11 active torsions:
REMARK  status: ('A' for Active; 'I' for Inactive)
REMARK    1  A    between atoms: S_1  and  C_14
REMARK    2  A    between atoms: S_1  and  C_18
REMARK    3  A    between atoms: O_3  and  C_16
REMARK    4  A    between atoms: O_4  and  C_23
REMARK    5  A    between atoms: N_9  and  C_25
REMARK    6  A    between atoms: N_9  and  C_26
REMARK    7  A    between atoms: C_11  and  C_16
REMARK    8  A    between atoms: C_12  and  C_17
REMARK    9  A    between atoms: C_15  and  C_23
REMARK   10  A    between atoms: C_16  and  C_20
REMARK   11  A    between atoms: C_22  and  C_24
REMARK                            x       y       z     vdW  Elec       q    Type
REMARK                         _______ _______ _______ _____ _____    ______ ____
ROOT
ATOM      1  O   UNL     1      -7.845  -1.245  13.135  0.00  0.00    +0.000 OA
ATOM      2  N   UNL     1      -6.594  -1.453  11.146  0.00  0.00    +0.000 N 
ATOM      3  C   UNL     1      -7.302  -1.812   9.900  0.00  0.00    +0.000 C 
ATOM      4  C   UNL     1      -8.568  -1.979  10.796  0.00  0.00    +0.000 C 
ATOM      5  C   UNL     1      -6.956  -0.661   8.931  0.00  0.00    +0.000 C 
ATOM      6  C   UNL     1      -7.673  -1.532  11.972  0.00  0.00    +0.000 C 
ATOM      7  C   UNL     1      -5.918   0.127   9.713  0.00  0.00    +0.000 C 
ATOM      8  C   UNL     1      -5.797  -0.363  10.955  0.00  0.00    +0.000 C 
ATOM      9  C   UNL     1      -8.154   0.158   8.479  0.00  0.00    +0.000 C 
ENDROOT
BRANCH   8  11
ATOM     10  O   UNL     1      -5.077   1.270  12.526  0.00  0.00    +0.000 OA
ATOM     11  C   UNL     1      -4.977   0.151  12.048  0.00  0.00    +0.000 C 
BRANCH  11  12
ATOM     12  O   UNL     1      -4.098  -0.796  12.445  0.00  0.00    +0.000 OA
ATOM     13  H   UNL     1      -3.495  -0.467  13.146  0.00  0.00    +0.000 HD
ENDBRANCH  11  12
ENDBRANCH   8  11
BRANCH   4  14
ATOM     14  C   UNL     1      -9.249  -3.309  11.002  0.00  0.00    +0.000 C 
ATOM     15  C   UNL     1     -10.383  -3.512  10.001  0.00  0.00    +0.000 C 
BRANCH  14  16
ATOM     16  O   UNL     1      -8.297  -4.362  10.842  0.00  0.00    +0.000 OA
ATOM     17  H   UNL     1      -8.174  -4.780  11.712  0.00  0.00    +0.000 HD
ENDBRANCH  14  16
ENDBRANCH   4  14
BRANCH   7  18
ATOM     18  S   UNL     1      -5.064   1.458   9.046  0.00  0.00    +0.000 S 
BRANCH  18  20
ATOM     19  N   UNL     1      -2.511  -0.561   6.750  0.00  0.00    +0.000 NA
ATOM     20  C   UNL     1      -4.312   0.663   7.602  0.00  0.00    +0.000 C 
ATOM     21  C   UNL     1      -3.519   1.630   6.727  0.00  0.00    +0.000 C 
ATOM     22  C   UNL     1      -3.288  -0.390   7.986  0.00  0.00    +0.000 C 
ATOM     23  C   UNL     1      -2.365   0.788   6.183  0.00  0.00    +0.000 C 
ATOM     24  H   UNL     1      -1.614  -1.007   6.935  0.00  0.00    +0.000 HD
BRANCH  23  27
ATOM     25  O   UNL     1      -0.860   1.575   7.819  0.00  0.00    +0.000 OA
ATOM     26  N   UNL     1      -0.054   1.442   5.644  0.00  0.00    +0.000 N 
ATOM     27  C   UNL     1      -1.033   1.302   6.629  0.00  0.00    +0.000 C 
ATOM     28  C   UNL     1       1.286   1.932   5.941  0.00  0.00    +0.000 C 
ATOM     29  C   UNL     1      -0.301   1.107   4.243  0.00  0.00    +0.000 C 
ENDBRANCH  23  27
ENDBRANCH  18  20
ENDBRANCH   7  18
TORSDOF 7
ENDMDL
MODEL 5
REMARK VINA RESULT:      -8.7      4.891      7.757
REMARK  Name = 441130
REMARK  11 active torsions:
REMARK  status: ('A' for Active; 'I' for Inactive)
REMARK    1  A    between atoms: S_1  and  C_14
REMARK    2  A    between atoms: S_1  and  C_18
REMARK    3  A    between atoms: O_3  and  C_16
REMARK    4  A    between atoms: O_4  and  C_23
REMARK    5  A    between atoms: N_9  and  C_25
REMARK    6  A    between atoms: N_9  and  C_26
REMARK    7  A    between atoms: C_11  and  C_16
REMARK    8  A    between atoms: C_12  and  C_17
REMARK    9  A    between atoms: C_15  and  C_23
REMARK   10  A    between atoms: C_16  and  C_20
REMARK   11  A    between atoms: C_22  and  C_24
REMARK                            x       y       z     vdW  Elec       q    Type
REMARK                         _______ _______ _______ _____ _____    ______ ____
ROOT
ATOM      1  O   UNL     1      -3.631   1.778  12.430  0.00  0.00    +0.000 OA
ATOM      2  N   UNL     1      -2.800   0.737  10.483  0.00  0.00    +0.000 N 
ATOM      3  C   UNL     1      -3.761   0.119   9.546  0.00  0.00    +0.000 C 
ATOM      4  C   UNL     1      -4.851   0.462  10.610  0.00  0.00    +0.000 C 
ATOM      5  C   UNL     1      -3.476   0.824   8.202  0.00  0.00    +0.000 C 
ATOM      6  C   UNL     1      -3.710   1.108  11.424  0.00  0.00    +0.000 C 
ATOM      7  C   UNL     1      -2.231   1.637   8.516  0.00  0.00    +0.000 C 
ATOM      8  C   UNL     1      -1.937   1.559   9.821  0.00  0.00    +0.000 C 
ATOM      9  C   UNL     1      -4.639   1.641   7.665  0.00  0.00    +0.000 C 
ENDROOT
BRANCH   8  11
ATOM     10  O   UNL     1      -1.019   3.309  11.144  0.00  0.00    +0.000 OA
ATOM     11  C   UNL     1      -0.877   2.253  10.546  0.00  0.00    +0.000 C 
BRANCH  11  12
ATOM     12  O   UNL     1       0.274   1.552  10.457  0.00  0.00    +0.000 OA
ATOM     13  H   UNL     1       0.329   1.038   9.623  0.00  0.00    +0.000 HD
ENDBRANCH  11  12
ENDBRANCH   8  11
BRANCH   4  14
ATOM     14  C   UNL     1      -5.624  -0.598  11.352  0.00  0.00    +0.000 C 
ATOM     15  C   UNL     1      -7.076  -0.180  11.563  0.00  0.00    +0.000 C 
BRANCH  14  16
ATOM     16  O   UNL     1      -5.597  -1.817  10.607  0.00  0.00    +0.000 OA
ATOM     17  H   UNL     1      -5.774  -1.596   9.677  0.00  0.00    +0.000 HD
ENDBRANCH  14  16
ENDBRANCH   4  14
BRANCH   7  18
ATOM     18  S   UNL     1      -1.372   2.522   7.320  0.00  0.00    +0.000 S 
BRANCH  18  20
ATOM     19  N   UNL     1       0.410   0.399   4.460  0.00  0.00    +0.000 NA
ATOM     20  C   UNL     1      -1.004   1.194   6.144  0.00  0.00    +0.000 C 
ATOM     21  C   UNL     1      -1.791   1.308   4.841  0.00  0.00    +0.000 C 
ATOM     22  C   UNL     1       0.443   1.209   5.687  0.00  0.00    +0.000 C 
ATOM     23  C   UNL     1      -0.839   0.767   3.775  0.00  0.00    +0.000 C 
ATOM     24  H   UNL     1       1.235   0.564   3.885  0.00  0.00    +0.000 HD
BRANCH  23  27
ATOM     25  O   UNL     1       0.284   2.719   3.071  0.00  0.00    +0.000 OA
ATOM     26  N   UNL     1      -1.061   1.667   1.494  0.00  0.00    +0.000 N 
ATOM     27  C   UNL     1      -0.484   1.806   2.758  0.00  0.00    +0.000 C 
ATOM     28  C   UNL     1      -0.801   2.607   0.412  0.00  0.00    +0.000 C 
ATOM     29  C   UNL     1      -1.966   0.569   1.165  0.00  0.00    +0.000 C 
ENDBRANCH  23  27
ENDBRANCH  18  20
ENDBRANCH   7  18
TORSDOF 7
ENDMDL
MODEL 6
REMARK VINA RESULT:      -8.1      4.501      6.839
REMARK  Name = 441130
REMARK  11 active torsions:
REMARK  status: ('A' for Active; 'I' for Inactive)
REMARK    1  A    between atoms: S_1  and  C_14
REMARK    2  A    between atoms: S_1  and  C_18
REMARK    3  A    between atoms: O_3  and  C_16
REMARK    4  A    between atoms: O_4  and  C_23
REMARK    5  A    between atoms: N_9  and  C_25
REMARK    6  A    between atoms: N_9  and  C_26
REMARK    7  A    between atoms: C_11  and  C_16
REMARK    8  A    between atoms: C_12  and  C_17
REMARK    9  A    between atoms: C_15  and  C_23
REMARK   10  A    between atoms: C_16  and  C_20
REMARK   11  A    between atoms: C_22  and  C_24
REMARK                            x       y       z     vdW  Elec       q    Type
REMARK                         _______ _______ _______ _____ _____    ______ ____
ROOT
ATOM      1  O   UNL     1      -6.256   1.642  11.655  0.00  0.00    +0.000 OA
ATOM      2  N   UNL     1      -4.581   0.704  10.285  0.00  0.00    +0.000 N 
ATOM      3  C   UNL     1      -4.830  -0.615   9.668  0.00  0.00    +0.000 C 
ATOM      4  C   UNL     1      -6.147  -0.637  10.504  0.00  0.00    +0.000 C 
ATOM      5  C   UNL     1      -4.656  -0.357   8.156  0.00  0.00    +0.000 C 
ATOM      6  C   UNL     1      -5.738   0.767  10.999  0.00  0.00    +0.000 C 
ATOM      7  C   UNL     1      -4.134   1.070   8.124  0.00  0.00    +0.000 C 
ATOM      8  C   UNL     1      -4.153   1.603   9.353  0.00  0.00    +0.000 C 
ATOM      9  C   UNL     1      -5.914  -0.582   7.334  0.00  0.00    +0.000 C 
ENDROOT
BRANCH   8  11
ATOM     10  O   UNL     1      -4.442   3.962   9.415  0.00  0.00    +0.000 OA
ATOM     11  C   UNL     1      -3.816   2.967   9.746  0.00  0.00    +0.000 C 
BRANCH  11  12
ATOM     12  O   UNL     1      -2.713   2.960  10.528  0.00  0.00    +0.000 OA
ATOM     13  H   UNL     1      -1.995   3.515  10.157  0.00  0.00    +0.000 HD
ENDBRANCH  11  12
ENDBRANCH   8  11
BRANCH   4  14
ATOM     14  C   UNL     1      -6.395  -1.638  11.604  0.00  0.00    +0.000 C 
ATOM     15  C   UNL     1      -7.880  -1.959  11.737  0.00  0.00    +0.000 C 
BRANCH  14  16
ATOM     16  O   UNL     1      -5.684  -2.844  11.321  0.00  0.00    +0.000 OA
ATOM     17  H   UNL     1      -6.019  -3.190  10.475  0.00  0.00    +0.000 HD
ENDBRANCH  14  16
ENDBRANCH   4  14
BRANCH   7  18
ATOM     18  S   UNL     1      -3.620   1.840   6.677  0.00  0.00    +0.000 S 
BRANCH  18  20
ATOM     19  N   UNL     1      -0.558  -0.046   4.967  0.00  0.00    +0.000 NA
ATOM     20  C   UNL     1      -2.592   0.529   5.966  0.00  0.00    +0.000 C 
ATOM     21  C   UNL     1      -2.905   0.246   4.500  0.00  0.00    +0.000 C 
ATOM     22  C   UNL     1      -1.118   0.892   5.951  0.00  0.00    +0.000 C 
ATOM     23  C   UNL     1      -1.557  -0.137   3.892  0.00  0.00    +0.000 C 
ATOM     24  H   UNL     1       0.351   0.268   4.631  0.00  0.00    +0.000 HD
BRANCH  23  27
ATOM     25  O   UNL     1      -0.254   1.650   3.073  0.00  0.00    +0.000 OA
ATOM     26  N   UNL     1      -1.765   0.699   1.585  0.00  0.00    +0.000 N 
ATOM     27  C   UNL     1      -1.129   0.818   2.822  0.00  0.00    +0.000 C 
ATOM     28  C   UNL     1      -1.445   1.564   0.458  0.00  0.00    +0.000 C 
ATOM     29  C   UNL     1      -2.798  -0.302   1.331  0.00  0.00    +0.000 C 
ENDBRANCH  23  27
ENDBRANCH  18  20
ENDBRANCH   7  18
TORSDOF 7
ENDMDL
MODEL 7
REMARK VINA RESULT:      -8.1      4.330      6.885
REMARK  Name = 441130
REMARK  11 active torsions:
REMARK  status: ('A' for Active; 'I' for Inactive)
REMARK    1  A    between atoms: S_1  and  C_14
REMARK    2  A    between atoms: S_1  and  C_18
REMARK    3  A    between atoms: O_3  and  C_16
REMARK    4  A    between atoms: O_4  and  C_23
REMARK    5  A    between atoms: N_9  and  C_25
REMARK    6  A    between atoms: N_9  and  C_26
REMARK    7  A    between atoms: C_11  and  C_16
REMARK    8  A    between atoms: C_12  and  C_17
REMARK    9  A    between atoms: C_15  and  C_23
REMARK   10  A    between atoms: C_16  and  C_20
REMARK   11  A    between atoms: C_22  and  C_24
REMARK                            x       y       z     vdW  Elec       q    Type
REMARK                         _______ _______ _______ _____ _____    ______ ____
ROOT
ATOM      1  O   UNL     1      -4.941   1.553  12.925  0.00  0.00    +0.000 OA
ATOM      2  N   UNL     1      -4.472   0.095  11.131  0.00  0.00    +0.000 N 
ATOM      3  C   UNL     1      -5.602  -0.555  10.435  0.00  0.00    +0.000 C 
ATOM      4  C   UNL     1      -6.508   0.099  11.524  0.00  0.00    +0.000 C 
ATOM      5  C   UNL     1      -5.419  -0.137   8.960  0.00  0.00    +0.000 C 
ATOM      6  C   UNL     1      -5.213   0.733  12.077  0.00  0.00    +0.000 C 
ATOM      7  C   UNL     1      -4.069   0.561   8.981  0.00  0.00    +0.000 C 
ATOM      8  C   UNL     1      -3.621   0.677  10.238  0.00  0.00    +0.000 C 
ATOM      9  C   UNL     1      -6.553   0.711   8.405  0.00  0.00    +0.000 C 
ENDROOT
BRANCH   8  11
ATOM     10  O   UNL     1      -1.281   0.912  10.586  0.00  0.00    +0.000 OA
ATOM     11  C   UNL     1      -2.414   1.352  10.704  0.00  0.00    +0.000 C 
BRANCH  11  12
ATOM     12  O   UNL     1      -2.742   2.530  11.281  0.00  0.00    +0.000 OA
ATOM     13  H   UNL     1      -2.920   3.228  10.615  0.00  0.00    +0.000 HD
ENDBRANCH  11  12
ENDBRANCH   8  11
BRANCH   4  14
ATOM     14  C   UNL     1      -7.284  -0.714  12.530  0.00  0.00    +0.000 C 
ATOM     15  C   UNL     1      -7.844  -1.986  11.901  0.00  0.00    +0.000 C 
BRANCH  14  16
ATOM     16  O   UNL     1      -6.428  -1.073  13.616  0.00  0.00    +0.000 OA
ATOM     17  H   UNL     1      -6.994  -1.372  14.348  0.00  0.00    +0.000 HD
ENDBRANCH  14  16
ENDBRANCH   4  14
BRANCH   7  18
ATOM     18  S   UNL     1      -3.284   1.112   7.556  0.00  0.00    +0.000 S 
BRANCH  18  20
ATOM     19  N   UNL     1      -2.776  -1.573   4.658  0.00  0.00    +0.000 NA
ATOM     20  C   UNL     1      -3.546  -0.318   6.475  0.00  0.00    +0.000 C 
ATOM     21  C   UNL     1      -4.510  -0.036   5.325  0.00  0.00    +0.000 C 
ATOM     22  C   UNL     1      -2.273  -0.755   5.772  0.00  0.00    +0.000 C 
ATOM     23  C   UNL     1      -3.979  -0.883   4.170  0.00  0.00    +0.000 C 
ATOM     24  H   UNL     1      -2.068  -1.688   3.935  0.00  0.00    +0.000 HD
BRANCH  23  27
ATOM     25  O   UNL     1      -2.979   1.028   3.213  0.00  0.00    +0.000 OA
ATOM     26  N   UNL     1      -3.840  -0.545   1.735  0.00  0.00    +0.000 N 
ATOM     27  C   UNL     1      -3.553  -0.044   3.006  0.00  0.00    +0.000 C 
ATOM     28  C   UNL     1      -3.480   0.169   0.517  0.00  0.00    +0.000 C 
ATOM     29  C   UNL     1      -4.521  -1.821   1.534  0.00  0.00    +0.000 C 
ENDBRANCH  23  27
ENDBRANCH  18  20
ENDBRANCH   7  18
TORSDOF 7
ENDMDL
MODEL 8
REMARK VINA RESULT:      -8.1      3.287      8.833
REMARK  Name = 441130
REMARK  11 active torsions:
REMARK  status: ('A' for Active; 'I' for Inactive)
REMARK    1  A    between atoms: S_1  and  C_14
REMARK    2  A    between atoms: S_1  and  C_18
REMARK    3  A    between atoms: O_3  and  C_16
REMARK    4  A    between atoms: O_4  and  C_23
REMARK    5  A    between atoms: N_9  and  C_25
REMARK    6  A    between atoms: N_9  and  C_26
REMARK    7  A    between atoms: C_11  and  C_16
REMARK    8  A    between atoms: C_12  and  C_17
REMARK    9  A    between atoms: C_15  and  C_23
REMARK   10  A    between atoms: C_16  and  C_20
REMARK   11  A    between atoms: C_22  and  C_24
REMARK                            x       y       z     vdW  Elec       q    Type
REMARK                         _______ _______ _______ _____ _____    ______ ____
ROOT
ATOM      1  O   UNL     1      -5.880  -3.504  11.651  0.00  0.00    +0.000 OA
ATOM      2  N   UNL     1      -7.982  -2.872  10.789  0.00  0.00    +0.000 N 
ATOM      3  C   UNL     1      -8.185  -1.467  10.379  0.00  0.00    +0.000 C 
ATOM      4  C   UNL     1      -6.758  -1.207  10.956  0.00  0.00    +0.000 C 
ATOM      5  C   UNL     1      -8.619  -1.571   8.901  0.00  0.00    +0.000 C 
ATOM      6  C   UNL     1      -6.715  -2.719  11.262  0.00  0.00    +0.000 C 
ATOM      7  C   UNL     1      -8.792  -3.069   8.713  0.00  0.00    +0.000 C 
ATOM      8  C   UNL     1      -8.384  -3.728   9.806  0.00  0.00    +0.000 C 
ATOM      9  C   UNL     1      -7.656  -0.923   7.919  0.00  0.00    +0.000 C 
ENDROOT
BRANCH   8  11
ATOM     10  O   UNL     1      -9.261  -5.897  10.227  0.00  0.00    +0.000 OA
ATOM     11  C   UNL     1      -8.304  -5.171  10.009  0.00  0.00    +0.000 C 
BRANCH  11  12
ATOM     12  O   UNL     1      -7.018  -5.576   9.916  0.00  0.00    +0.000 OA
ATOM     13  H   UNL     1      -6.920  -6.362   9.338  0.00  0.00    +0.000 HD
ENDBRANCH  11  12
ENDBRANCH   8  11
BRANCH   4  14
ATOM     14  C   UNL     1      -6.515  -0.321  12.152  0.00  0.00    +0.000 C 
ATOM     15  C   UNL     1      -5.088  -0.470  12.670  0.00  0.00    +0.000 C 
BRANCH  14  16
ATOM     16  O   UNL     1      -6.736   1.043  11.789  0.00  0.00    +0.000 OA
ATOM     17  H   UNL     1      -6.288   1.598  12.450  0.00  0.00    +0.000 HD
ENDBRANCH  14  16
ENDBRANCH   4  14
BRANCH   7  18
ATOM     18  S   UNL     1      -9.417  -3.759   7.270  0.00  0.00    +0.000 S 
BRANCH  18  20
ATOM     19  N   UNL     1     -13.271  -4.039   8.233  0.00  0.00    +0.000 NA
ATOM     20  C   UNL     1     -11.173  -3.357   7.459  0.00  0.00    +0.000 C 
ATOM     21  C   UNL     1     -12.000  -3.674   6.216  0.00  0.00    +0.000 C 
ATOM     22  C   UNL     1     -11.842  -4.174   8.549  0.00  0.00    +0.000 C 
ATOM     23  C   UNL     1     -13.361  -4.100   6.766  0.00  0.00    +0.000 C 
ATOM     24  H   UNL     1     -13.822  -4.764   8.690  0.00  0.00    +0.000 HD
BRANCH  23  27
ATOM     25  O   UNL     1     -12.815  -6.379   6.490  0.00  0.00    +0.000 OA
ATOM     26  N   UNL     1     -15.006  -5.769   6.011  0.00  0.00    +0.000 N 
ATOM     27  C   UNL     1     -13.693  -5.516   6.413  0.00  0.00    +0.000 C 
ATOM     28  C   UNL     1     -15.464  -7.101   5.639  0.00  0.00    +0.000 C 
ATOM     29  C   UNL     1     -16.016  -4.716   5.933  0.00  0.00    +0.000 C 
ENDBRANCH  23  27
ENDBRANCH  18  20
ENDBRANCH   7  18
TORSDOF 7
ENDMDL
MODEL 9
REMARK VINA RESULT:      -8.0      2.097      3.043
REMARK  Name = 441130
REMARK  11 active torsions:
REMARK  status: ('A' for Active; 'I' for Inactive)
REMARK    1  A    between atoms: S_1  and  C_14
REMARK    2  A    between atoms: S_1  and  C_18
REMARK    3  A    between atoms: O_3  and  C_16
REMARK    4  A    between atoms: O_4  and  C_23
REMARK    5  A    between atoms: N_9  and  C_25
REMARK    6  A    between atoms: N_9  and  C_26
REMARK    7  A    between atoms: C_11  and  C_16
REMARK    8  A    between atoms: C_12  and  C_17
REMARK    9  A    between atoms: C_15  and  C_23
REMARK   10  A    between atoms: C_16  and  C_20
REMARK   11  A    between atoms: C_22  and  C_24
REMARK                            x       y       z     vdW  Elec       q    Type
REMARK                         _______ _______ _______ _____ _____    ______ ____
ROOT
ATOM      1  O   UNL     1      -8.323  -3.373   6.827  0.00  0.00    +0.000 OA
ATOM      2  N   UNL     1      -8.973  -2.044   8.664  0.00  0.00    +0.000 N 
ATOM      3  C   UNL     1      -9.015  -2.663  10.005  0.00  0.00    +0.000 C 
ATOM      4  C   UNL     1      -8.691  -4.004   9.276  0.00  0.00    +0.000 C 
ATOM      5  C   UNL     1      -8.075  -1.779  10.852  0.00  0.00    +0.000 C 
ATOM      6  C   UNL     1      -8.639  -3.171   7.978  0.00  0.00    +0.000 C 
ATOM      7  C   UNL     1      -7.759  -0.633   9.905  0.00  0.00    +0.000 C 
ATOM      8  C   UNL     1      -8.273  -0.873   8.691  0.00  0.00    +0.000 C 
ATOM      9  C   UNL     1      -6.851  -2.502  11.389  0.00  0.00    +0.000 C 
ENDROOT
BRANCH   8  11
ATOM     10  O   UNL     1      -7.140  -0.064   6.765  0.00  0.00    +0.000 OA
ATOM     11  C   UNL     1      -8.130  -0.073   7.479  0.00  0.00    +0.000 C 
BRANCH  11  12
ATOM     12  O   UNL     1      -9.253   0.650   7.272  0.00  0.00    +0.000 OA
ATOM     13  H   UNL     1      -9.541   1.122   8.082  0.00  0.00    +0.000 HD
ENDBRANCH  11  12
ENDBRANCH   8  11
BRANCH   4  14
ATOM     14  C   UNL     1      -9.657  -5.161   9.236  0.00  0.00    +0.000 C 
ATOM     15  C   UNL     1      -9.150  -6.276   8.326  0.00  0.00    +0.000 C 
BRANCH  14  16
ATOM     16  O   UNL     1      -9.832  -5.683  10.554  0.00  0.00    +0.000 OA
ATOM     17  H   UNL     1     -10.547  -6.341  10.517  0.00  0.00    +0.000 HD
ENDBRANCH  14  16
ENDBRANCH   4  14
BRANCH   7  18
ATOM     18  S   UNL     1      -6.853   0.746  10.382  0.00  0.00    +0.000 S 
BRANCH  18  20
ATOM     19  N   UNL     1      -2.956   0.156  10.956  0.00  0.00    +0.000 NA
ATOM     20  C   UNL     1      -5.170   0.097  10.208  0.00  0.00    +0.000 C 
ATOM     21  C   UNL     1      -4.370   0.788   9.108  0.00  0.00    +0.000 C 
ATOM     22  C   UNL     1      -4.330   0.321  11.452  0.00  0.00    +0.000 C 
ATOM     23  C   UNL     1      -2.934   0.793   9.630  0.00  0.00    +0.000 C 
ATOM     24  H   UNL     1      -2.279   0.565  11.598  0.00  0.00    +0.000 HD
BRANCH  23  27
ATOM     25  O   UNL     1      -2.838   2.860  10.762  0.00  0.00    +0.000 OA
ATOM     26  N   UNL     1      -1.448   2.620   8.914  0.00  0.00    +0.000 N 
ATOM     27  C   UNL     1      -2.410   2.180   9.826  0.00  0.00    +0.000 C 
ATOM     28  C   UNL     1      -0.855   3.949   8.989  0.00  0.00    +0.000 C 
ATOM     29  C   UNL     1      -0.968   1.782   7.819  0.00  0.00    +0.000 C 
ENDBRANCH  23  27
ENDBRANCH  18  20
ENDBRANCH   7  18
TORSDOF 7
ENDMDL
