MODEL 1
REMARK VINA RESULT:      -7.5      0.000      0.000
REMARK  Name = 123630
REMARK  5 active torsions:
REMARK  status: ('A' for Active; 'I' for Inactive)
REMARK    1  A    between atoms: O_5  and  C_18
REMARK    2  A    between atoms: N_8  and  C_16
REMARK    3  A    between atoms: C_11  and  C_16
REMARK    4  A    between atoms: C_11  and  C_17
REMARK    5  A    between atoms: C_13  and  C_18
REMARK                            x       y       z     vdW  Elec       q    Type
REMARK                         _______ _______ _______ _____ _____    ______ ____
ROOT
ATOM      1  S   UNL     1      -7.000  -0.640   9.125  0.00  0.00    +0.000 S 
ATOM      2  O   UNL     1      -6.567  -1.195   7.857  0.00  0.00    +0.000 OA
ATOM      3  O   UNL     1      -8.270   0.054   9.229  0.00  0.00    +0.000 OA
ATOM      4  O   UNL     1      -7.979  -0.842  13.335  0.00  0.00    +0.000 OA
ATOM      5  N   UNL     1      -6.483  -1.009  11.520  0.00  0.00    +0.000 N 
ATOM      6  C   UNL     1      -5.669   0.452   9.804  0.00  0.00    +0.000 C 
ATOM      7  C   UNL     1      -6.871  -1.883  10.401  0.00  0.00    +0.000 C 
ATOM      8  C   UNL     1      -5.889   0.299  11.321  0.00  0.00    +0.000 C 
ATOM      9  C   UNL     1      -8.088  -2.295  11.238  0.00  0.00    +0.000 C 
ATOM     10  C   UNL     1      -7.566  -1.300  12.294  0.00  0.00    +0.000 C 
ATOM     11  C   UNL     1      -4.303  -0.059   9.318  0.00  0.00    +0.000 C 
ENDROOT
BRANCH   8  13
ATOM     12  O   UNL     1      -4.109   1.399  12.526  0.00  0.00    +0.000 OA
ATOM     13  C   UNL     1      -4.661   0.368  12.172  0.00  0.00    +0.000 C 
BRANCH  13  14
ATOM     14  O   UNL     1      -4.236  -0.877  12.500  0.00  0.00    +0.000 OA
ATOM     15  H   UNL     1      -3.949  -0.930  13.437  0.00  0.00    +0.000 HD
ENDBRANCH  13  14
ENDBRANCH   8  13
BRANCH   6  16
ATOM     16  C   UNL     1      -5.882   1.892   9.336  0.00  0.00    +0.000 C 
BRANCH  16  17
ATOM     17  N   UNL     1      -4.649   2.480   8.849  0.00  0.00    +0.000 N 
ATOM     18  N   UNL     1      -3.800   3.071   9.698  0.00  0.00    +0.000 NA
ATOM     19  N   UNL     1      -2.777   3.513   8.976  0.00  0.00    +0.000 NA
ATOM     20  C   UNL     1      -4.207   2.520   7.568  0.00  0.00    +0.000 A 
ATOM     21  C   UNL     1      -3.010   3.184   7.670  0.00  0.00    +0.000 A 
ENDBRANCH  16  17
ENDBRANCH   6  16
TORSDOF 4
ENDMDL
MODEL 2
REMARK VINA RESULT:      -7.3      2.098      3.568
REMARK  Name = 123630
REMARK  5 active torsions:
REMARK  status: ('A' for Active; 'I' for Inactive)
REMARK    1  A    between atoms: O_5  and  C_18
REMARK    2  A    between atoms: N_8  and  C_16
REMARK    3  A    between atoms: C_11  and  C_16
REMARK    4  A    between atoms: C_11  and  C_17
REMARK    5  A    between atoms: C_13  and  C_18
REMARK                            x       y       z     vdW  Elec       q    Type
REMARK                         _______ _______ _______ _____ _____    ______ ____
ROOT
ATOM      1  S   UNL     1      -5.557   0.316  11.835  0.00  0.00    +0.000 S 
ATOM      2  O   UNL     1      -5.545   1.642  12.420  0.00  0.00    +0.000 OA
ATOM      3  O   UNL     1      -4.732  -0.741  12.390  0.00  0.00    +0.000 OA
ATOM      4  O   UNL     1      -7.457  -3.332  10.492  0.00  0.00    +0.000 OA
ATOM      5  N   UNL     1      -7.090  -1.004  10.405  0.00  0.00    +0.000 N 
ATOM      6  C   UNL     1      -5.220   0.442  10.019  0.00  0.00    +0.000 C 
ATOM      7  C   UNL     1      -7.243  -0.248  11.657  0.00  0.00    +0.000 C 
ATOM      8  C   UNL     1      -6.002  -0.768   9.476  0.00  0.00    +0.000 C 
ATOM      9  C   UNL     1      -7.719  -1.554  12.305  0.00  0.00    +0.000 C 
ATOM     10  C   UNL     1      -7.462  -2.205  10.932  0.00  0.00    +0.000 C 
ATOM     11  C   UNL     1      -5.731   1.797   9.506  0.00  0.00    +0.000 C 
ENDROOT
BRANCH   8  13
ATOM     12  O   UNL     1      -7.565   0.100   7.854  0.00  0.00    +0.000 OA
ATOM     13  C   UNL     1      -6.601  -0.604   8.116  0.00  0.00    +0.000 C 
BRANCH  13  14
ATOM     14  O   UNL     1      -5.928  -1.347   7.203  0.00  0.00    +0.000 OA
ATOM     15  H   UNL     1      -5.761  -2.259   7.524  0.00  0.00    +0.000 HD
ENDBRANCH  13  14
ENDBRANCH   8  13
BRANCH   6  16
ATOM     16  C   UNL     1      -3.718   0.319   9.756  0.00  0.00    +0.000 C 
BRANCH  16  17
ATOM     17  N   UNL     1      -3.432   0.264   8.335  0.00  0.00    +0.000 N 
ATOM     18  N   UNL     1      -3.180  -0.908   7.741  0.00  0.00    +0.000 NA
ATOM     19  N   UNL     1      -2.953  -0.651   6.458  0.00  0.00    +0.000 NA
ATOM     20  C   UNL     1      -3.375   1.303   7.466  0.00  0.00    +0.000 A 
ATOM     21  C   UNL     1      -3.068   0.699   6.274  0.00  0.00    +0.000 A 
ENDBRANCH  16  17
ENDBRANCH   6  16
TORSDOF 4
ENDMDL
MODEL 3
REMARK VINA RESULT:      -7.3      1.928      5.088
REMARK  Name = 123630
REMARK  5 active torsions:
REMARK  status: ('A' for Active; 'I' for Inactive)
REMARK    1  A    between atoms: O_5  and  C_18
REMARK    2  A    between atoms: N_8  and  C_16
REMARK    3  A    between atoms: C_11  and  C_16
REMARK    4  A    between atoms: C_11  and  C_17
REMARK    5  A    between atoms: C_13  and  C_18
REMARK                            x       y       z     vdW  Elec       q    Type
REMARK                         _______ _______ _______ _____ _____    ______ ____
ROOT
ATOM      1  S   UNL     1      -5.129   1.650   8.378  0.00  0.00    +0.000 S 
ATOM      2  O   UNL     1      -6.304   2.368   7.926  0.00  0.00    +0.000 OA
ATOM      3  O   UNL     1      -4.326   0.886   7.440  0.00  0.00    +0.000 OA
ATOM      4  O   UNL     1      -1.269   1.317  10.305  0.00  0.00    +0.000 OA
ATOM      5  N   UNL     1      -3.584   1.766  10.312  0.00  0.00    +0.000 N 
ATOM      6  C   UNL     1      -5.585   0.555   9.798  0.00  0.00    +0.000 C 
ATOM      7  C   UNL     1      -4.086   2.742   9.332  0.00  0.00    +0.000 C 
ATOM      8  C   UNL     1      -4.269   0.520  10.597  0.00  0.00    +0.000 C 
ATOM      9  C   UNL     1      -2.625   2.995   8.940  0.00  0.00    +0.000 C 
ATOM     10  C   UNL     1      -2.270   1.912   9.978  0.00  0.00    +0.000 C 
ATOM     11  C   UNL     1      -6.762   1.184  10.560  0.00  0.00    +0.000 C 
ENDROOT
BRANCH   8  13
ATOM     12  O   UNL     1      -4.597   1.356  12.838  0.00  0.00    +0.000 OA
ATOM     13  C   UNL     1      -4.407   0.415  12.082  0.00  0.00    +0.000 C 
BRANCH  13  14
ATOM     14  O   UNL     1      -4.291  -0.875  12.483  0.00  0.00    +0.000 OA
ATOM     15  H   UNL     1      -4.916  -1.464  12.009  0.00  0.00    +0.000 HD
ENDBRANCH  13  14
ENDBRANCH   8  13
BRANCH   6  16
ATOM     16  C   UNL     1      -5.980  -0.831   9.285  0.00  0.00    +0.000 C 
BRANCH  16  17
ATOM     17  N   UNL     1      -6.892  -1.494  10.197  0.00  0.00    +0.000 N 
ATOM     18  N   UNL     1      -6.426  -2.341  11.122  0.00  0.00    +0.000 NA
ATOM     19  N   UNL     1      -7.477  -2.791  11.799  0.00  0.00    +0.000 NA
ATOM     20  C   UNL     1      -8.242  -1.372  10.246  0.00  0.00    +0.000 A 
ATOM     21  C   UNL     1      -8.596  -2.207  11.274  0.00  0.00    +0.000 A 
ENDBRANCH  16  17
ENDBRANCH   6  16
TORSDOF 4
ENDMDL
MODEL 4
REMARK VINA RESULT:      -7.2      2.846      5.760
REMARK  Name = 123630
REMARK  5 active torsions:
REMARK  status: ('A' for Active; 'I' for Inactive)
REMARK    1  A    between atoms: O_5  and  C_18
REMARK    2  A    between atoms: N_8  and  C_16
REMARK    3  A    between atoms: C_11  and  C_16
REMARK    4  A    between atoms: C_11  and  C_17
REMARK    5  A    between atoms: C_13  and  C_18
REMARK                            x       y       z     vdW  Elec       q    Type
REMARK                         _______ _______ _______ _____ _____    ______ ____
ROOT
ATOM      1  S   UNL     1      -7.862  -0.132   8.118  0.00  0.00    +0.000 S 
ATOM      2  O   UNL     1      -9.226   0.169   7.732  0.00  0.00    +0.000 OA
ATOM      3  O   UNL     1      -6.795  -0.106   7.134  0.00  0.00    +0.000 OA
ATOM      4  O   UNL     1      -4.265   0.413  10.462  0.00  0.00    +0.000 OA
ATOM      5  N   UNL     1      -6.546  -0.136  10.218  0.00  0.00    +0.000 N 
ATOM      6  C   UNL     1      -7.817  -1.759   8.998  0.00  0.00    +0.000 C 
ATOM      7  C   UNL     1      -7.409   0.846   9.543  0.00  0.00    +0.000 C 
ATOM      8  C   UNL     1      -6.627  -1.560   9.956  0.00  0.00    +0.000 C 
ATOM      9  C   UNL     1      -6.197   1.785   9.512  0.00  0.00    +0.000 C 
ATOM     10  C   UNL     1      -5.422   0.634  10.182  0.00  0.00    +0.000 C 
ATOM     11  C   UNL     1      -9.160  -1.982   9.711  0.00  0.00    +0.000 C 
ENDROOT
BRANCH   8  13
ATOM     12  O   UNL     1      -7.428  -1.892  12.209  0.00  0.00    +0.000 OA
ATOM     13  C   UNL     1      -6.726  -2.254  11.276  0.00  0.00    +0.000 C 
BRANCH  13  14
ATOM     14  O   UNL     1      -5.923  -3.346  11.305  0.00  0.00    +0.000 OA
ATOM     15  H   UNL     1      -6.440  -4.178  11.361  0.00  0.00    +0.000 HD
ENDBRANCH  13  14
ENDBRANCH   8  13
BRANCH   6  16
ATOM     16  C   UNL     1      -7.565  -2.889   7.999  0.00  0.00    +0.000 C 
BRANCH  16  17
ATOM     17  N   UNL     1      -8.239  -4.110   8.398  0.00  0.00    +0.000 N 
ATOM     18  N   UNL     1      -7.680  -4.928   9.298  0.00  0.00    +0.000 NA
ATOM     19  N   UNL     1      -8.511  -5.951   9.460  0.00  0.00    +0.000 NA
ATOM     20  C   UNL     1      -9.434  -4.573   7.955  0.00  0.00    +0.000 A 
ATOM     21  C   UNL     1      -9.590  -5.749   8.645  0.00  0.00    +0.000 A 
ENDBRANCH  16  17
ENDBRANCH   6  16
TORSDOF 4
ENDMDL
MODEL 5
REMARK VINA RESULT:      -7.1      5.564      7.799
REMARK  Name = 123630
REMARK  5 active torsions:
REMARK  status: ('A' for Active; 'I' for Inactive)
REMARK    1  A    between atoms: O_5  and  C_18
REMARK    2  A    between atoms: N_8  and  C_16
REMARK    3  A    between atoms: C_11  and  C_16
REMARK    4  A    between atoms: C_11  and  C_17
REMARK    5  A    between atoms: C_13  and  C_18
REMARK                            x       y       z     vdW  Elec       q    Type
REMARK                         _______ _______ _______ _____ _____    ______ ____
ROOT
ATOM      1  S   UNL     1      -1.884   1.496   3.390  0.00  0.00    +0.000 S 
ATOM      2  O   UNL     1      -0.787   2.401   3.112  0.00  0.00    +0.000 OA
ATOM      3  O   UNL     1      -3.223   2.008   3.614  0.00  0.00    +0.000 OA
ATOM      4  O   UNL     1      -4.468  -1.869   2.538  0.00  0.00    +0.000 OA
ATOM      5  N   UNL     1      -2.370  -0.906   3.021  0.00  0.00    +0.000 N 
ATOM      6  C   UNL     1      -1.427   0.390   4.801  0.00  0.00    +0.000 C 
ATOM      7  C   UNL     1      -1.919   0.199   2.161  0.00  0.00    +0.000 C 
ATOM      8  C   UNL     1      -2.220  -0.886   4.464  0.00  0.00    +0.000 C 
ATOM      9  C   UNL     1      -3.166  -0.053   1.304  0.00  0.00    +0.000 C 
ATOM     10  C   UNL     1      -3.517  -1.151   2.327  0.00  0.00    +0.000 C 
ATOM     11  C   UNL     1       0.097   0.192   4.812  0.00  0.00    +0.000 C 
ENDROOT
BRANCH   8  13
ATOM     12  O   UNL     1      -0.875  -2.866   4.146  0.00  0.00    +0.000 OA
ATOM     13  C   UNL     1      -1.584  -2.178   4.866  0.00  0.00    +0.000 C 
BRANCH  13  14
ATOM     14  O   UNL     1      -1.904  -2.491   6.146  0.00  0.00    +0.000 OA
ATOM     15  H   UNL     1      -1.315  -3.187   6.510  0.00  0.00    +0.000 HD
ENDBRANCH  13  14
ENDBRANCH   8  13
BRANCH   6  16
ATOM     16  C   UNL     1      -1.879   1.013   6.123  0.00  0.00    +0.000 C 
BRANCH  16  17
ATOM     17  N   UNL     1      -3.056   0.347   6.648  0.00  0.00    +0.000 N 
ATOM     18  N   UNL     1      -2.962  -0.442   7.724  0.00  0.00    +0.000 NA
ATOM     19  N   UNL     1      -4.181  -0.910   7.967  0.00  0.00    +0.000 NA
ATOM     20  C   UNL     1      -4.322   0.413   6.167  0.00  0.00    +0.000 A 
ATOM     21  C   UNL     1      -5.025  -0.396   7.022  0.00  0.00    +0.000 A 
ENDBRANCH  16  17
ENDBRANCH   6  16
TORSDOF 4
ENDMDL
MODEL 6
REMARK VINA RESULT:      -7.0      5.003      7.878
REMARK  Name = 123630
REMARK  5 active torsions:
REMARK  status: ('A' for Active; 'I' for Inactive)
REMARK    1  A    between atoms: O_5  and  C_18
REMARK    2  A    between atoms: N_8  and  C_16
REMARK    3  A    between atoms: C_11  and  C_16
REMARK    4  A    between atoms: C_11  and  C_17
REMARK    5  A    between atoms: C_13  and  C_18
REMARK                            x       y       z     vdW  Elec       q    Type
REMARK                         _______ _______ _______ _____ _____    ______ ____
ROOT
ATOM      1  S   UNL     1      -1.307   1.434   6.217  0.00  0.00    +0.000 S 
ATOM      2  O   UNL     1      -0.845   1.126   7.556  0.00  0.00    +0.000 OA
ATOM      3  O   UNL     1      -1.758   2.773   5.884  0.00  0.00    +0.000 OA
ATOM      4  O   UNL     1      -0.913   1.649   1.913  0.00  0.00    +0.000 OA
ATOM      5  N   UNL     1      -1.028   0.469   3.952  0.00  0.00    +0.000 N 
ATOM      6  C   UNL     1      -2.619   0.226   5.726  0.00  0.00    +0.000 C 
ATOM      7  C   UNL     1      -0.103   0.875   5.021  0.00  0.00    +0.000 C 
ATOM      8  C   UNL     1      -2.423   0.160   4.200  0.00  0.00    +0.000 C 
ATOM      9  C   UNL     1       0.527   1.843   4.013  0.00  0.00    +0.000 C 
ATOM     10  C   UNL     1      -0.541   1.339   3.023  0.00  0.00    +0.000 C 
ATOM     11  C   UNL     1      -2.368  -1.109   6.445  0.00  0.00    +0.000 C 
ENDROOT
BRANCH   8  13
ATOM     12  O   UNL     1      -3.812  -1.531   3.179  0.00  0.00    +0.000 OA
ATOM     13  C   UNL     1      -2.711  -1.159   3.558  0.00  0.00    +0.000 C 
BRANCH  13  14
ATOM     14  O   UNL     1      -1.579  -1.897   3.453  0.00  0.00    +0.000 OA
ATOM     15  H   UNL     1      -1.770  -2.828   3.209  0.00  0.00    +0.000 HD
ENDBRANCH  13  14
ENDBRANCH   8  13
BRANCH   6  16
ATOM     16  C   UNL     1      -3.999   0.768   6.104  0.00  0.00    +0.000 C 
BRANCH  16  17
ATOM     17  N   UNL     1      -4.366   0.388   7.454  0.00  0.00    +0.000 N 
ATOM     18  N   UNL     1      -4.986  -0.775   7.685  0.00  0.00    +0.000 NA
ATOM     19  N   UNL     1      -5.197  -0.848   8.994  0.00  0.00    +0.000 NA
ATOM     20  C   UNL     1      -4.159   1.095   8.593  0.00  0.00    +0.000 A 
ATOM     21  C   UNL     1      -4.696   0.289   9.564  0.00  0.00    +0.000 A 
ENDBRANCH  16  17
ENDBRANCH   6  16
TORSDOF 4
ENDMDL
MODEL 7
REMARK VINA RESULT:      -7.0      5.760      8.222
REMARK  Name = 123630
REMARK  5 active torsions:
REMARK  status: ('A' for Active; 'I' for Inactive)
REMARK    1  A    between atoms: O_5  and  C_18
REMARK    2  A    between atoms: N_8  and  C_16
REMARK    3  A    between atoms: C_11  and  C_16
REMARK    4  A    between atoms: C_11  and  C_17
REMARK    5  A    between atoms: C_13  and  C_18
REMARK                            x       y       z     vdW  Elec       q    Type
REMARK                         _______ _______ _______ _____ _____    ______ ____
ROOT
ATOM      1  S   UNL     1      -1.547   1.497   6.130  0.00  0.00    +0.000 S 
ATOM      2  O   UNL     1      -1.242   1.252   7.526  0.00  0.00    +0.000 OA
ATOM      3  O   UNL     1      -2.010   2.802   5.696  0.00  0.00    +0.000 OA
ATOM      4  O   UNL     1      -0.631   1.598   1.902  0.00  0.00    +0.000 OA
ATOM      5  N   UNL     1      -0.948   0.477   3.953  0.00  0.00    +0.000 N 
ATOM      6  C   UNL     1      -2.736   0.214   5.526  0.00  0.00    +0.000 C 
ATOM      7  C   UNL     1      -0.181   0.959   5.112  0.00  0.00    +0.000 C 
ATOM      8  C   UNL     1      -2.349   0.111   4.038  0.00  0.00    +0.000 C 
ATOM      9  C   UNL     1       0.527   1.923   4.154  0.00  0.00    +0.000 C 
ATOM     10  C   UNL     1      -0.388   1.340   3.059  0.00  0.00    +0.000 C 
ATOM     11  C   UNL     1      -2.519  -1.085   6.318  0.00  0.00    +0.000 C 
ENDROOT
BRANCH   8  13
ATOM     12  O   UNL     1      -3.482  -1.624   2.799  0.00  0.00    +0.000 OA
ATOM     13  C   UNL     1      -2.498  -1.239   3.415  0.00  0.00    +0.000 C 
BRANCH  13  14
ATOM     14  O   UNL     1      -1.389  -1.989   3.625  0.00  0.00    +0.000 OA
ATOM     15  H   UNL     1      -1.358  -2.772   3.034  0.00  0.00    +0.000 HD
ENDBRANCH  13  14
ENDBRANCH   8  13
BRANCH   6  16
ATOM     16  C   UNL     1      -4.173   0.703   5.711  0.00  0.00    +0.000 C 
BRANCH  16  17
ATOM     17  N   UNL     1      -5.123  -0.388   5.599  0.00  0.00    +0.000 N 
ATOM     18  N   UNL     1      -5.233  -1.292   6.578  0.00  0.00    +0.000 NA
ATOM     19  N   UNL     1      -6.165  -2.160   6.201  0.00  0.00    +0.000 NA
ATOM     20  C   UNL     1      -5.968  -0.639   4.569  0.00  0.00    +0.000 A 
ATOM     21  C   UNL     1      -6.625  -1.774   4.972  0.00  0.00    +0.000 A 
ENDBRANCH  16  17
ENDBRANCH   6  16
TORSDOF 4
ENDMDL
MODEL 8
REMARK VINA RESULT:      -7.0      5.738      8.018
REMARK  Name = 123630
REMARK  5 active torsions:
REMARK  status: ('A' for Active; 'I' for Inactive)
REMARK    1  A    between atoms: O_5  and  C_18
REMARK    2  A    between atoms: N_8  and  C_16
REMARK    3  A    between atoms: C_11  and  C_16
REMARK    4  A    between atoms: C_11  and  C_17
REMARK    5  A    between atoms: C_13  and  C_18
REMARK                            x       y       z     vdW  Elec       q    Type
REMARK                         _______ _______ _______ _____ _____    ______ ____
ROOT
ATOM      1  S   UNL     1      -2.321   1.321   2.827  0.00  0.00    +0.000 S 
ATOM      2  O   UNL     1      -3.243   2.318   2.320  0.00  0.00    +0.000 OA
ATOM      3  O   UNL     1      -1.669   0.394   1.920  0.00  0.00    +0.000 OA
ATOM      4  O   UNL     1       1.183   0.000   4.995  0.00  0.00    +0.000 OA
ATOM      5  N   UNL     1      -0.941   1.017   4.862  0.00  0.00    +0.000 N 
ATOM      6  C   UNL     1      -3.139   0.355   4.177  0.00  0.00    +0.000 C 
ATOM      7  C   UNL     1      -1.111   2.102   3.883  0.00  0.00    +0.000 C 
ATOM      8  C   UNL     1      -1.935  -0.020   5.061  0.00  0.00    +0.000 C 
ATOM      9  C   UNL     1       0.391   1.985   3.598  0.00  0.00    +0.000 C 
ATOM     10  C   UNL     1       0.388   0.833   4.622  0.00  0.00    +0.000 C 
ATOM     11  C   UNL     1      -4.173   1.250   4.879  0.00  0.00    +0.000 C 
ENDROOT
BRANCH   8  13
ATOM     12  O   UNL     1      -2.108   0.820   7.317  0.00  0.00    +0.000 OA
ATOM     13  C   UNL     1      -2.202  -0.109   6.529  0.00  0.00    +0.000 C 
BRANCH  13  14
ATOM     14  O   UNL     1      -2.565  -1.369   6.874  0.00  0.00    +0.000 OA
ATOM     15  H   UNL     1      -1.987  -2.044   6.459  0.00  0.00    +0.000 HD
ENDBRANCH  13  14
ENDBRANCH   8  13
BRANCH   6  16
ATOM     16  C   UNL     1      -3.829  -0.879   3.594  0.00  0.00    +0.000 C 
BRANCH  16  17
ATOM     17  N   UNL     1      -4.996  -1.251   4.372  0.00  0.00    +0.000 N 
ATOM     18  N   UNL     1      -4.894  -2.157   5.351  0.00  0.00    +0.000 NA
ATOM     19  N   UNL     1      -6.106  -2.295   5.877  0.00  0.00    +0.000 NA
ATOM     20  C   UNL     1      -6.260  -0.781   4.235  0.00  0.00    +0.000 A 
ATOM     21  C   UNL     1      -6.954  -1.460   5.204  0.00  0.00    +0.000 A 
ENDBRANCH  16  17
ENDBRANCH   6  16
TORSDOF 4
ENDMDL
MODEL 9
REMARK VINA RESULT:      -6.8      6.601      8.546
REMARK  Name = 123630
REMARK  5 active torsions:
REMARK  status: ('A' for Active; 'I' for Inactive)
REMARK    1  A    between atoms: O_5  and  C_18
REMARK    2  A    between atoms: N_8  and  C_16
REMARK    3  A    between atoms: C_11  and  C_16
REMARK    4  A    between atoms: C_11  and  C_17
REMARK    5  A    between atoms: C_13  and  C_18
REMARK                            x       y       z     vdW  Elec       q    Type
REMARK                         _______ _______ _______ _____ _____    ______ ____
ROOT
ATOM      1  S   UNL     1      -1.968   2.372   4.513  0.00  0.00    +0.000 S 
ATOM      2  O   UNL     1      -3.029   3.205   5.044  0.00  0.00    +0.000 OA
ATOM      3  O   UNL     1      -1.124   2.853   3.434  0.00  0.00    +0.000 OA
ATOM      4  O   UNL     1       1.617  -0.032   4.813  0.00  0.00    +0.000 OA
ATOM      5  N   UNL     1      -0.645   0.429   5.296  0.00  0.00    +0.000 N 
ATOM      6  C   UNL     1      -2.661   0.724   4.036  0.00  0.00    +0.000 C 
ATOM      7  C   UNL     1      -0.961   1.754   5.852  0.00  0.00    +0.000 C 
ATOM      8  C   UNL     1      -1.448  -0.198   4.264  0.00  0.00    +0.000 C 
ATOM      9  C   UNL     1       0.549   2.016   5.901  0.00  0.00    +0.000 C 
ATOM     10  C   UNL     1       0.705   0.617   5.272  0.00  0.00    +0.000 C 
ATOM     11  C   UNL     1      -3.865   0.405   4.936  0.00  0.00    +0.000 C 
ENDROOT
BRANCH   8  13
ATOM     12  O   UNL     1      -2.372  -1.871   5.740  0.00  0.00    +0.000 OA
ATOM     13  C   UNL     1      -1.759  -1.588   4.721  0.00  0.00    +0.000 C 
BRANCH  13  14
ATOM     14  O   UNL     1      -1.265  -2.500   3.849  0.00  0.00    +0.000 OA
ATOM     15  H   UNL     1      -0.322  -2.332   3.638  0.00  0.00    +0.000 HD
ENDBRANCH  13  14
ENDBRANCH   8  13
BRANCH   6  16
ATOM     16  C   UNL     1      -3.098   0.743   2.570  0.00  0.00    +0.000 C 
BRANCH  16  17
ATOM     17  N   UNL     1      -4.053  -0.311   2.288  0.00  0.00    +0.000 N 
ATOM     18  N   UNL     1      -3.631  -1.551   2.016  0.00  0.00    +0.000 NA
ATOM     19  N   UNL     1      -4.714  -2.289   1.798  0.00  0.00    +0.000 NA
ATOM     20  C   UNL     1      -5.405  -0.209   2.254  0.00  0.00    +0.000 A 
ATOM     21  C   UNL     1      -5.808  -1.481   1.940  0.00  0.00    +0.000 A 
ENDBRANCH  16  17
ENDBRANCH   6  16
TORSDOF 4
ENDMDL
